Linux 4.15.0-99-generic (team-23-hw6-ins2) 	05/02/20 	_x86_64_	(48 CPU)

# Time        UID       PID    %usr %system  %guest   %wait    %CPU   CPU  minflt/s  majflt/s     VSZ     RSS   %MEM   kB_rd/s   kB_wr/s kB_ccwr/s iodelay  Command
19:09:42        0         1    0.96    0.00    0.00    0.00    0.96    12    116.35      0.00  225512    9244   0.00     -1.00     -1.00     -1.00       0  /sbin/init 
19:09:42        0       354    0.00    0.96    0.00    0.00    0.96     6      0.00      0.00       0       0   0.00     -1.00     -1.00     -1.00       0  ksmd
19:09:42        0       912    0.00    0.00    0.00    0.00    0.00    10    115.38      0.00  134872   46632   0.02     -1.00     -1.00     -1.00       0  /lib/systemd/systemd-journald 
19:09:42        0       934    0.00    1.92    0.00    0.00    1.92    19    710.58      0.00   46148    4956   0.00     -1.00     -1.00     -1.00       0  /lib/systemd/systemd-udevd 
19:09:42        0      2934    0.00    0.96    0.00    0.00    0.96    29      0.00      0.00 1621548   26548   0.01     -1.00     -1.00     -1.00       0  /usr/sbin/libvirtd 
19:09:42    64055      4709    9.62   80.77  100.00    0.00  100.00    29      9.62      0.00 39650256 13825848   7.03     -1.00     -1.00     -1.00       0  qemu-system-x86_64 -enable-kvm -name guest=T23L-namenode2,debug-threads=on -S -object secret,id=masterKey0,format=raw,file=/var/lib/libvirt/qemu/domain-2-T23L-namenode2/master-key.aes -machine pc-i440fx-bionic,accel=kvm,usb=off,dump-guest-core=off -cpu Skylake-Server-IBRS -m 32768 -realtime mlock=off -smp 16,sockets=16,cores=1,threads=1 -uuid 1d45067d-157d-4402-b0ff-7325d99a25e0 -display none -no-user-config -nodefaults -chardev socket,id=charmonitor,path=/var/lib/libvirt/qemu/domain-2-T23L-namenode2/monitor.sock,server,nowait -mon chardev=charmonitor,id=monitor,mode=control -rtc base=utc,driftfix=slew -global kvm-pit.lost_tick_policy=delay -no-hpet -no-shutdown -global PIIX4_PM.disable_s3=1 -global PIIX4_PM.disable_s4=1 -boot strict=on -device ich9-usb-ehci1,id=usb,bus=pci.0,addr=0x3.0x7 -device ich9-usb-uhci1,masterbus=usb.0,firstport=0,bus=pci.0,multifunction=on,addr=0x3 -device ich9-usb-uhci2,masterbus=usb.0,firstport=2,bus=pci.0,addr=0x3.0x1 -device ich9-usb-uhci3,masterbus=usb.0,firstport=4,bus=pci.0,addr=0x3.0x2 -drive file=/var/lib/libvirt/images/T23L-namenode2.img,format=raw,if=none,id=drive-virtio-disk0 -device virtio-blk-pci,scsi=off,bus=pci.0,addr=0x4,drive=drive-virtio-disk0,id=virtio-disk0,bootindex=1 -drive file=/var/lib/libvirt/images/T23L-namenode2.iso,format=raw,if=none,id=drive-ide0-0-0,readonly=on -device ide-cd,bus=ide.0,unit=0,drive=drive-ide0-0-0,id=ide0-0-0 -netdev tap,fd=27,id=hostnet0,vhost=on,vhostfd=29 -device virtio-net-pci,netdev=hostnet0,id=net0,mac=52:54:00:86:fc:7a,bus=pci.0,addr=0x2 -chardev pty,id=charserial0 -device isa-serial,chardev=charserial0,id=serial0 -device virtio-balloon-pci,id=balloon0,bus=pci.0,addr=0x5 -msg timestamp=on 
19:09:42     1000     21247    1.92    1.92    0.00    0.00    3.85    41   2634.62      0.00   22924   16944   0.01      0.00      0.00      0.00       0  pidstat -d -r -u -hl 1 

# Time        UID       PID    %usr %system  %guest   %wait    %CPU   CPU  minflt/s  majflt/s     VSZ     RSS   %MEM   kB_rd/s   kB_wr/s kB_ccwr/s iodelay  Command
19:09:43    64055      4709   13.00   83.00  100.00    1.00  100.00    29     27.00      0.00 39650256 13825848   7.03     -1.00     -1.00     -1.00       0  qemu-system-x86_64 -enable-kvm -name guest=T23L-namenode2,debug-threads=on -S -object secret,id=masterKey0,format=raw,file=/var/lib/libvirt/qemu/domain-2-T23L-namenode2/master-key.aes -machine pc-i440fx-bionic,accel=kvm,usb=off,dump-guest-core=off -cpu Skylake-Server-IBRS -m 32768 -realtime mlock=off -smp 16,sockets=16,cores=1,threads=1 -uuid 1d45067d-157d-4402-b0ff-7325d99a25e0 -display none -no-user-config -nodefaults -chardev socket,id=charmonitor,path=/var/lib/libvirt/qemu/domain-2-T23L-namenode2/monitor.sock,server,nowait -mon chardev=charmonitor,id=monitor,mode=control -rtc base=utc,driftfix=slew -global kvm-pit.lost_tick_policy=delay -no-hpet -no-shutdown -global PIIX4_PM.disable_s3=1 -global PIIX4_PM.disable_s4=1 -boot strict=on -device ich9-usb-ehci1,id=usb,bus=pci.0,addr=0x3.0x7 -device ich9-usb-uhci1,masterbus=usb.0,firstport=0,bus=pci.0,multifunction=on,addr=0x3 -device ich9-usb-uhci2,masterbus=usb.0,firstport=2,bus=pci.0,addr=0x3.0x1 -device ich9-usb-uhci3,masterbus=usb.0,firstport=4,bus=pci.0,addr=0x3.0x2 -drive file=/var/lib/libvirt/images/T23L-namenode2.img,format=raw,if=none,id=drive-virtio-disk0 -device virtio-blk-pci,scsi=off,bus=pci.0,addr=0x4,drive=drive-virtio-disk0,id=virtio-disk0,bootindex=1 -drive file=/var/lib/libvirt/images/T23L-namenode2.iso,format=raw,if=none,id=drive-ide0-0-0,readonly=on -device ide-cd,bus=ide.0,unit=0,drive=drive-ide0-0-0,id=ide0-0-0 -netdev tap,fd=27,id=hostnet0,vhost=on,vhostfd=29 -device virtio-net-pci,netdev=hostnet0,id=net0,mac=52:54:00:86:fc:7a,bus=pci.0,addr=0x2 -chardev pty,id=charserial0 -device isa-serial,chardev=charserial0,id=serial0 -device virtio-balloon-pci,id=balloon0,bus=pci.0,addr=0x5 -msg timestamp=on 
19:09:43     1000     21247    2.00    2.00    0.00    0.00    4.00    41    104.00      0.00   22924   17472   0.01      0.00      0.00      0.00       0  pidstat -d -r -u -hl 1 

# Time        UID       PID    %usr %system  %guest   %wait    %CPU   CPU  minflt/s  majflt/s     VSZ     RSS   %MEM   kB_rd/s   kB_wr/s kB_ccwr/s iodelay  Command
19:09:44        0       354    0.00    1.00    0.00    0.00    1.00     6      0.00      0.00       0       0   0.00     -1.00     -1.00     -1.00       0  ksmd
19:09:44    64055      3331    0.00    1.00    0.00    0.00    1.00    30      0.00      0.00 35163940   49892   0.03     -1.00     -1.00     -1.00       0  qemu-system-x86_64 -enable-kvm -name guest=T23L-namenode,debug-threads=on -S -object secret,id=masterKey0,format=raw,file=/var/lib/libvirt/qemu/domain-1-T23L-namenode/master-key.aes -machine pc-i440fx-bionic,accel=kvm,usb=off,dump-guest-core=off -cpu Skylake-Server-IBRS -m 32768 -realtime mlock=off -smp 16,sockets=16,cores=1,threads=1 -uuid d7b3a402-fd55-4996-b667-a6b2ae76342c -display none -no-user-config -nodefaults -chardev socket,id=charmonitor,path=/var/lib/libvirt/qemu/domain-1-T23L-namenode/monitor.sock,server,nowait -mon chardev=charmonitor,id=monitor,mode=control -rtc base=utc,driftfix=slew -global kvm-pit.lost_tick_policy=delay -no-hpet -no-shutdown -global PIIX4_PM.disable_s3=1 -global PIIX4_PM.disable_s4=1 -boot strict=on -device ich9-usb-ehci1,id=usb,bus=pci.0,addr=0x3.0x7 -device ich9-usb-uhci1,masterbus=usb.0,firstport=0,bus=pci.0,multifunction=on,addr=0x3 -device ich9-usb-uhci2,masterbus=usb.0,firstport=2,bus=pci.0,addr=0x3.0x1 -device ich9-usb-uhci3,masterbus=usb.0,firstport=4,bus=pci.0,addr=0x3.0x2 -drive file=/var/lib/libvirt/images/T23L-namenode.img,format=raw,if=none,id=drive-virtio-disk0 -device virtio-blk-pci,scsi=off,bus=pci.0,addr=0x4,drive=drive-virtio-disk0,id=virtio-disk0,bootindex=1 -drive file=/var/lib/libvirt/images/T23L-namenode.iso,format=raw,if=none,id=drive-ide0-0-0,readonly=on -device ide-cd,bus=ide.0,unit=0,drive=drive-ide0-0-0,id=ide0-0-0 -netdev tap,fd=25,id=hostnet0,vhost=on,vhostfd=27 -device virtio-net-pci,netdev=hostnet0,id=net0,mac=52:54:00:d3:c2:69,bus=pci.0,addr=0x2 -chardev pty,id=charserial0 -device isa-serial,chardev=charserial0,id=serial0 -device virtio-balloon-pci,id=balloon0,bus=pci.0,addr=0x5 -msg timestamp=on 
19:09:44    64055      4709   12.00   80.00  100.00    0.00  100.00    29      7.00      0.00 39650256 13825848   7.03     -1.00     -1.00     -1.00       0  qemu-system-x86_64 -enable-kvm -name guest=T23L-namenode2,debug-threads=on -S -object secret,id=masterKey0,format=raw,file=/var/lib/libvirt/qemu/domain-2-T23L-namenode2/master-key.aes -machine pc-i440fx-bionic,accel=kvm,usb=off,dump-guest-core=off -cpu Skylake-Server-IBRS -m 32768 -realtime mlock=off -smp 16,sockets=16,cores=1,threads=1 -uuid 1d45067d-157d-4402-b0ff-7325d99a25e0 -display none -no-user-config -nodefaults -chardev socket,id=charmonitor,path=/var/lib/libvirt/qemu/domain-2-T23L-namenode2/monitor.sock,server,nowait -mon chardev=charmonitor,id=monitor,mode=control -rtc base=utc,driftfix=slew -global kvm-pit.lost_tick_policy=delay -no-hpet -no-shutdown -global PIIX4_PM.disable_s3=1 -global PIIX4_PM.disable_s4=1 -boot strict=on -device ich9-usb-ehci1,id=usb,bus=pci.0,addr=0x3.0x7 -device ich9-usb-uhci1,masterbus=usb.0,firstport=0,bus=pci.0,multifunction=on,addr=0x3 -device ich9-usb-uhci2,masterbus=usb.0,firstport=2,bus=pci.0,addr=0x3.0x1 -device ich9-usb-uhci3,masterbus=usb.0,firstport=4,bus=pci.0,addr=0x3.0x2 -drive file=/var/lib/libvirt/images/T23L-namenode2.img,format=raw,if=none,id=drive-virtio-disk0 -device virtio-blk-pci,scsi=off,bus=pci.0,addr=0x4,drive=drive-virtio-disk0,id=virtio-disk0,bootindex=1 -drive file=/var/lib/libvirt/images/T23L-namenode2.iso,format=raw,if=none,id=drive-ide0-0-0,readonly=on -device ide-cd,bus=ide.0,unit=0,drive=drive-ide0-0-0,id=ide0-0-0 -netdev tap,fd=27,id=hostnet0,vhost=on,vhostfd=29 -device virtio-net-pci,netdev=hostnet0,id=net0,mac=52:54:00:86:fc:7a,bus=pci.0,addr=0x2 -chardev pty,id=charserial0 -device isa-serial,chardev=charserial0,id=serial0 -device virtio-balloon-pci,id=balloon0,bus=pci.0,addr=0x5 -msg timestamp=on 
19:09:44     1000     21247    0.00    4.00    0.00    0.00    4.00    41      1.00      0.00   22924   17472   0.01      0.00      4.00      0.00       0  pidstat -d -r -u -hl 1 

# Time        UID       PID    %usr %system  %guest   %wait    %CPU   CPU  minflt/s  majflt/s     VSZ     RSS   %MEM   kB_rd/s   kB_wr/s kB_ccwr/s iodelay  Command
19:09:45        0       258    1.00    0.00    0.00    0.00    1.00    41      0.00      0.00       0       0   0.00     -1.00     -1.00     -1.00       0  ksoftirqd/41
19:09:45        0       797    0.00    1.00    0.00    1.00    1.00    11      0.00      0.00       0       0   0.00     -1.00     -1.00     -1.00      24  jbd2/sda1-8
19:09:45    64055      4709   10.00   82.00  100.00    0.00  100.00    29      8.00      0.00 39650256 13825848   7.03     -1.00     -1.00     -1.00       0  qemu-system-x86_64 -enable-kvm -name guest=T23L-namenode2,debug-threads=on -S -object secret,id=masterKey0,format=raw,file=/var/lib/libvirt/qemu/domain-2-T23L-namenode2/master-key.aes -machine pc-i440fx-bionic,accel=kvm,usb=off,dump-guest-core=off -cpu Skylake-Server-IBRS -m 32768 -realtime mlock=off -smp 16,sockets=16,cores=1,threads=1 -uuid 1d45067d-157d-4402-b0ff-7325d99a25e0 -display none -no-user-config -nodefaults -chardev socket,id=charmonitor,path=/var/lib/libvirt/qemu/domain-2-T23L-namenode2/monitor.sock,server,nowait -mon chardev=charmonitor,id=monitor,mode=control -rtc base=utc,driftfix=slew -global kvm-pit.lost_tick_policy=delay -no-hpet -no-shutdown -global PIIX4_PM.disable_s3=1 -global PIIX4_PM.disable_s4=1 -boot strict=on -device ich9-usb-ehci1,id=usb,bus=pci.0,addr=0x3.0x7 -device ich9-usb-uhci1,masterbus=usb.0,firstport=0,bus=pci.0,multifunction=on,addr=0x3 -device ich9-usb-uhci2,masterbus=usb.0,firstport=2,bus=pci.0,addr=0x3.0x1 -device ich9-usb-uhci3,masterbus=usb.0,firstport=4,bus=pci.0,addr=0x3.0x2 -drive file=/var/lib/libvirt/images/T23L-namenode2.img,format=raw,if=none,id=drive-virtio-disk0 -device virtio-blk-pci,scsi=off,bus=pci.0,addr=0x4,drive=drive-virtio-disk0,id=virtio-disk0,bootindex=1 -drive file=/var/lib/libvirt/images/T23L-namenode2.iso,format=raw,if=none,id=drive-ide0-0-0,readonly=on -device ide-cd,bus=ide.0,unit=0,drive=drive-ide0-0-0,id=ide0-0-0 -netdev tap,fd=27,id=hostnet0,vhost=on,vhostfd=29 -device virtio-net-pci,netdev=hostnet0,id=net0,mac=52:54:00:86:fc:7a,bus=pci.0,addr=0x2 -chardev pty,id=charserial0 -device isa-serial,chardev=charserial0,id=serial0 -device virtio-balloon-pci,id=balloon0,bus=pci.0,addr=0x5 -msg timestamp=on 
19:09:45        0     14149    1.00    0.00    0.00    0.00    1.00     9      0.00      0.00       0       0   0.00     -1.00     -1.00     -1.00       0  kworker/9:1
19:09:45     1000     21247    2.00    2.00    0.00    0.00    4.00    41      0.00      0.00   22924   17472   0.01      0.00      4.00      0.00       0  pidstat -d -r -u -hl 1 

# Time        UID       PID    %usr %system  %guest   %wait    %CPU   CPU  minflt/s  majflt/s     VSZ     RSS   %MEM   kB_rd/s   kB_wr/s kB_ccwr/s iodelay  Command
19:09:46        0       354    0.00    1.00    0.00    0.00    1.00     6      0.00      0.00       0       0   0.00     -1.00     -1.00     -1.00       0  ksmd
19:09:46    64055      4709    9.00   94.00  100.00    0.00  100.00    29     95.00      0.00 39650256 13825848   7.03     -1.00     -1.00     -1.00       0  qemu-system-x86_64 -enable-kvm -name guest=T23L-namenode2,debug-threads=on -S -object secret,id=masterKey0,format=raw,file=/var/lib/libvirt/qemu/domain-2-T23L-namenode2/master-key.aes -machine pc-i440fx-bionic,accel=kvm,usb=off,dump-guest-core=off -cpu Skylake-Server-IBRS -m 32768 -realtime mlock=off -smp 16,sockets=16,cores=1,threads=1 -uuid 1d45067d-157d-4402-b0ff-7325d99a25e0 -display none -no-user-config -nodefaults -chardev socket,id=charmonitor,path=/var/lib/libvirt/qemu/domain-2-T23L-namenode2/monitor.sock,server,nowait -mon chardev=charmonitor,id=monitor,mode=control -rtc base=utc,driftfix=slew -global kvm-pit.lost_tick_policy=delay -no-hpet -no-shutdown -global PIIX4_PM.disable_s3=1 -global PIIX4_PM.disable_s4=1 -boot strict=on -device ich9-usb-ehci1,id=usb,bus=pci.0,addr=0x3.0x7 -device ich9-usb-uhci1,masterbus=usb.0,firstport=0,bus=pci.0,multifunction=on,addr=0x3 -device ich9-usb-uhci2,masterbus=usb.0,firstport=2,bus=pci.0,addr=0x3.0x1 -device ich9-usb-uhci3,masterbus=usb.0,firstport=4,bus=pci.0,addr=0x3.0x2 -drive file=/var/lib/libvirt/images/T23L-namenode2.img,format=raw,if=none,id=drive-virtio-disk0 -device virtio-blk-pci,scsi=off,bus=pci.0,addr=0x4,drive=drive-virtio-disk0,id=virtio-disk0,bootindex=1 -drive file=/var/lib/libvirt/images/T23L-namenode2.iso,format=raw,if=none,id=drive-ide0-0-0,readonly=on -device ide-cd,bus=ide.0,unit=0,drive=drive-ide0-0-0,id=ide0-0-0 -netdev tap,fd=27,id=hostnet0,vhost=on,vhostfd=29 -device virtio-net-pci,netdev=hostnet0,id=net0,mac=52:54:00:86:fc:7a,bus=pci.0,addr=0x2 -chardev pty,id=charserial0 -device isa-serial,chardev=charserial0,id=serial0 -device virtio-balloon-pci,id=balloon0,bus=pci.0,addr=0x5 -msg timestamp=on 
19:09:46     1000     21247    2.00    2.00    0.00    0.00    4.00    41      0.00      0.00   22924   17472   0.01      0.00      0.00      0.00       0  pidstat -d -r -u -hl 1 

# Time        UID       PID    %usr %system  %guest   %wait    %CPU   CPU  minflt/s  majflt/s     VSZ     RSS   %MEM   kB_rd/s   kB_wr/s kB_ccwr/s iodelay  Command
19:09:47        0       354    0.00    1.00    0.00    0.00    1.00     6      0.00      0.00       0       0   0.00     -1.00     -1.00     -1.00       0  ksmd
19:09:47    64055      3331    0.00    1.00    0.00    0.00    1.00    30      0.00      0.00 35163940   49892   0.03     -1.00     -1.00     -1.00       0  qemu-system-x86_64 -enable-kvm -name guest=T23L-namenode,debug-threads=on -S -object secret,id=masterKey0,format=raw,file=/var/lib/libvirt/qemu/domain-1-T23L-namenode/master-key.aes -machine pc-i440fx-bionic,accel=kvm,usb=off,dump-guest-core=off -cpu Skylake-Server-IBRS -m 32768 -realtime mlock=off -smp 16,sockets=16,cores=1,threads=1 -uuid d7b3a402-fd55-4996-b667-a6b2ae76342c -display none -no-user-config -nodefaults -chardev socket,id=charmonitor,path=/var/lib/libvirt/qemu/domain-1-T23L-namenode/monitor.sock,server,nowait -mon chardev=charmonitor,id=monitor,mode=control -rtc base=utc,driftfix=slew -global kvm-pit.lost_tick_policy=delay -no-hpet -no-shutdown -global PIIX4_PM.disable_s3=1 -global PIIX4_PM.disable_s4=1 -boot strict=on -device ich9-usb-ehci1,id=usb,bus=pci.0,addr=0x3.0x7 -device ich9-usb-uhci1,masterbus=usb.0,firstport=0,bus=pci.0,multifunction=on,addr=0x3 -device ich9-usb-uhci2,masterbus=usb.0,firstport=2,bus=pci.0,addr=0x3.0x1 -device ich9-usb-uhci3,masterbus=usb.0,firstport=4,bus=pci.0,addr=0x3.0x2 -drive file=/var/lib/libvirt/images/T23L-namenode.img,format=raw,if=none,id=drive-virtio-disk0 -device virtio-blk-pci,scsi=off,bus=pci.0,addr=0x4,drive=drive-virtio-disk0,id=virtio-disk0,bootindex=1 -drive file=/var/lib/libvirt/images/T23L-namenode.iso,format=raw,if=none,id=drive-ide0-0-0,readonly=on -device ide-cd,bus=ide.0,unit=0,drive=drive-ide0-0-0,id=ide0-0-0 -netdev tap,fd=25,id=hostnet0,vhost=on,vhostfd=27 -device virtio-net-pci,netdev=hostnet0,id=net0,mac=52:54:00:d3:c2:69,bus=pci.0,addr=0x2 -chardev pty,id=charserial0 -device isa-serial,chardev=charserial0,id=serial0 -device virtio-balloon-pci,id=balloon0,bus=pci.0,addr=0x5 -msg timestamp=on 
19:09:47    64055      4709   13.00   99.00  100.00    0.00  100.00    29    790.00      0.00 39650256 13825848   7.03     -1.00     -1.00     -1.00       0  qemu-system-x86_64 -enable-kvm -name guest=T23L-namenode2,debug-threads=on -S -object secret,id=masterKey0,format=raw,file=/var/lib/libvirt/qemu/domain-2-T23L-namenode2/master-key.aes -machine pc-i440fx-bionic,accel=kvm,usb=off,dump-guest-core=off -cpu Skylake-Server-IBRS -m 32768 -realtime mlock=off -smp 16,sockets=16,cores=1,threads=1 -uuid 1d45067d-157d-4402-b0ff-7325d99a25e0 -display none -no-user-config -nodefaults -chardev socket,id=charmonitor,path=/var/lib/libvirt/qemu/domain-2-T23L-namenode2/monitor.sock,server,nowait -mon chardev=charmonitor,id=monitor,mode=control -rtc base=utc,driftfix=slew -global kvm-pit.lost_tick_policy=delay -no-hpet -no-shutdown -global PIIX4_PM.disable_s3=1 -global PIIX4_PM.disable_s4=1 -boot strict=on -device ich9-usb-ehci1,id=usb,bus=pci.0,addr=0x3.0x7 -device ich9-usb-uhci1,masterbus=usb.0,firstport=0,bus=pci.0,multifunction=on,addr=0x3 -device ich9-usb-uhci2,masterbus=usb.0,firstport=2,bus=pci.0,addr=0x3.0x1 -device ich9-usb-uhci3,masterbus=usb.0,firstport=4,bus=pci.0,addr=0x3.0x2 -drive file=/var/lib/libvirt/images/T23L-namenode2.img,format=raw,if=none,id=drive-virtio-disk0 -device virtio-blk-pci,scsi=off,bus=pci.0,addr=0x4,drive=drive-virtio-disk0,id=virtio-disk0,bootindex=1 -drive file=/var/lib/libvirt/images/T23L-namenode2.iso,format=raw,if=none,id=drive-ide0-0-0,readonly=on -device ide-cd,bus=ide.0,unit=0,drive=drive-ide0-0-0,id=ide0-0-0 -netdev tap,fd=27,id=hostnet0,vhost=on,vhostfd=29 -device virtio-net-pci,netdev=hostnet0,id=net0,mac=52:54:00:86:fc:7a,bus=pci.0,addr=0x2 -chardev pty,id=charserial0 -device isa-serial,chardev=charserial0,id=serial0 -device virtio-balloon-pci,id=balloon0,bus=pci.0,addr=0x5 -msg timestamp=on 
19:09:47     1000     21247    1.00    2.00    0.00    0.00    3.00    41      0.00      0.00   22924   17472   0.01      0.00      4.00      0.00       0  pidstat -d -r -u -hl 1 

# Time        UID       PID    %usr %system  %guest   %wait    %CPU   CPU  minflt/s  majflt/s     VSZ     RSS   %MEM   kB_rd/s   kB_wr/s kB_ccwr/s iodelay  Command
19:09:48        0        66    0.00    1.00    0.00    0.00    1.00     9      0.00      0.00       0       0   0.00     -1.00     -1.00     -1.00       0  ksoftirqd/9
19:09:48        0       838    1.00    0.00    0.00    0.00    1.00     9      0.00      0.00       0       0   0.00     -1.00     -1.00     -1.00       0  kworker/9:1H
19:09:48        0      2319    0.00    1.00    0.00    0.00    1.00    13      0.00      0.00  110780    3876   0.00     -1.00     -1.00     -1.00       0  /usr/sbin/irqbalance --foreground 
19:09:48    64055      4709   15.00   96.00  100.00    0.00  100.00    29    987.00      0.00 39650256 13825848   7.03     -1.00     -1.00     -1.00       0  qemu-system-x86_64 -enable-kvm -name guest=T23L-namenode2,debug-threads=on -S -object secret,id=masterKey0,format=raw,file=/var/lib/libvirt/qemu/domain-2-T23L-namenode2/master-key.aes -machine pc-i440fx-bionic,accel=kvm,usb=off,dump-guest-core=off -cpu Skylake-Server-IBRS -m 32768 -realtime mlock=off -smp 16,sockets=16,cores=1,threads=1 -uuid 1d45067d-157d-4402-b0ff-7325d99a25e0 -display none -no-user-config -nodefaults -chardev socket,id=charmonitor,path=/var/lib/libvirt/qemu/domain-2-T23L-namenode2/monitor.sock,server,nowait -mon chardev=charmonitor,id=monitor,mode=control -rtc base=utc,driftfix=slew -global kvm-pit.lost_tick_policy=delay -no-hpet -no-shutdown -global PIIX4_PM.disable_s3=1 -global PIIX4_PM.disable_s4=1 -boot strict=on -device ich9-usb-ehci1,id=usb,bus=pci.0,addr=0x3.0x7 -device ich9-usb-uhci1,masterbus=usb.0,firstport=0,bus=pci.0,multifunction=on,addr=0x3 -device ich9-usb-uhci2,masterbus=usb.0,firstport=2,bus=pci.0,addr=0x3.0x1 -device ich9-usb-uhci3,masterbus=usb.0,firstport=4,bus=pci.0,addr=0x3.0x2 -drive file=/var/lib/libvirt/images/T23L-namenode2.img,format=raw,if=none,id=drive-virtio-disk0 -device virtio-blk-pci,scsi=off,bus=pci.0,addr=0x4,drive=drive-virtio-disk0,id=virtio-disk0,bootindex=1 -drive file=/var/lib/libvirt/images/T23L-namenode2.iso,format=raw,if=none,id=drive-ide0-0-0,readonly=on -device ide-cd,bus=ide.0,unit=0,drive=drive-ide0-0-0,id=ide0-0-0 -netdev tap,fd=27,id=hostnet0,vhost=on,vhostfd=29 -device virtio-net-pci,netdev=hostnet0,id=net0,mac=52:54:00:86:fc:7a,bus=pci.0,addr=0x2 -chardev pty,id=charserial0 -device isa-serial,chardev=charserial0,id=serial0 -device virtio-balloon-pci,id=balloon0,bus=pci.0,addr=0x5 -msg timestamp=on 
19:09:48     1000     21247    1.00    2.00    0.00    0.00    3.00    41      0.00      0.00   22924   17472   0.01      0.00      4.00      0.00       0  pidstat -d -r -u -hl 1 

# Time        UID       PID    %usr %system  %guest   %wait    %CPU   CPU  minflt/s  majflt/s     VSZ     RSS   %MEM   kB_rd/s   kB_wr/s kB_ccwr/s iodelay  Command
19:09:49        0       354    0.00    1.00    0.00    0.00    1.00    10      0.00      0.00       0       0   0.00     -1.00     -1.00     -1.00       0  ksmd
19:09:49    64055      4709   12.00   97.00  100.00    1.00  100.00    29   1777.00      0.00 39650256 13825848   7.03     -1.00     -1.00     -1.00       0  qemu-system-x86_64 -enable-kvm -name guest=T23L-namenode2,debug-threads=on -S -object secret,id=masterKey0,format=raw,file=/var/lib/libvirt/qemu/domain-2-T23L-namenode2/master-key.aes -machine pc-i440fx-bionic,accel=kvm,usb=off,dump-guest-core=off -cpu Skylake-Server-IBRS -m 32768 -realtime mlock=off -smp 16,sockets=16,cores=1,threads=1 -uuid 1d45067d-157d-4402-b0ff-7325d99a25e0 -display none -no-user-config -nodefaults -chardev socket,id=charmonitor,path=/var/lib/libvirt/qemu/domain-2-T23L-namenode2/monitor.sock,server,nowait -mon chardev=charmonitor,id=monitor,mode=control -rtc base=utc,driftfix=slew -global kvm-pit.lost_tick_policy=delay -no-hpet -no-shutdown -global PIIX4_PM.disable_s3=1 -global PIIX4_PM.disable_s4=1 -boot strict=on -device ich9-usb-ehci1,id=usb,bus=pci.0,addr=0x3.0x7 -device ich9-usb-uhci1,masterbus=usb.0,firstport=0,bus=pci.0,multifunction=on,addr=0x3 -device ich9-usb-uhci2,masterbus=usb.0,firstport=2,bus=pci.0,addr=0x3.0x1 -device ich9-usb-uhci3,masterbus=usb.0,firstport=4,bus=pci.0,addr=0x3.0x2 -drive file=/var/lib/libvirt/images/T23L-namenode2.img,format=raw,if=none,id=drive-virtio-disk0 -device virtio-blk-pci,scsi=off,bus=pci.0,addr=0x4,drive=drive-virtio-disk0,id=virtio-disk0,bootindex=1 -drive file=/var/lib/libvirt/images/T23L-namenode2.iso,format=raw,if=none,id=drive-ide0-0-0,readonly=on -device ide-cd,bus=ide.0,unit=0,drive=drive-ide0-0-0,id=ide0-0-0 -netdev tap,fd=27,id=hostnet0,vhost=on,vhostfd=29 -device virtio-net-pci,netdev=hostnet0,id=net0,mac=52:54:00:86:fc:7a,bus=pci.0,addr=0x2 -chardev pty,id=charserial0 -device isa-serial,chardev=charserial0,id=serial0 -device virtio-balloon-pci,id=balloon0,bus=pci.0,addr=0x5 -msg timestamp=on 
19:09:49     1000     21247    2.00    2.00    0.00    0.00    4.00    41      0.00      0.00   22924   17472   0.01      0.00      4.00      0.00       0  pidstat -d -r -u -hl 1 

# Time        UID       PID    %usr %system  %guest   %wait    %CPU   CPU  minflt/s  majflt/s     VSZ     RSS   %MEM   kB_rd/s   kB_wr/s kB_ccwr/s iodelay  Command
19:09:50    64055      4709    7.00  100.00  100.00    0.00  100.00    29   5262.00      0.00 39650256 13825848   7.03     -1.00     -1.00     -1.00       0  qemu-system-x86_64 -enable-kvm -name guest=T23L-namenode2,debug-threads=on -S -object secret,id=masterKey0,format=raw,file=/var/lib/libvirt/qemu/domain-2-T23L-namenode2/master-key.aes -machine pc-i440fx-bionic,accel=kvm,usb=off,dump-guest-core=off -cpu Skylake-Server-IBRS -m 32768 -realtime mlock=off -smp 16,sockets=16,cores=1,threads=1 -uuid 1d45067d-157d-4402-b0ff-7325d99a25e0 -display none -no-user-config -nodefaults -chardev socket,id=charmonitor,path=/var/lib/libvirt/qemu/domain-2-T23L-namenode2/monitor.sock,server,nowait -mon chardev=charmonitor,id=monitor,mode=control -rtc base=utc,driftfix=slew -global kvm-pit.lost_tick_policy=delay -no-hpet -no-shutdown -global PIIX4_PM.disable_s3=1 -global PIIX4_PM.disable_s4=1 -boot strict=on -device ich9-usb-ehci1,id=usb,bus=pci.0,addr=0x3.0x7 -device ich9-usb-uhci1,masterbus=usb.0,firstport=0,bus=pci.0,multifunction=on,addr=0x3 -device ich9-usb-uhci2,masterbus=usb.0,firstport=2,bus=pci.0,addr=0x3.0x1 -device ich9-usb-uhci3,masterbus=usb.0,firstport=4,bus=pci.0,addr=0x3.0x2 -drive file=/var/lib/libvirt/images/T23L-namenode2.img,format=raw,if=none,id=drive-virtio-disk0 -device virtio-blk-pci,scsi=off,bus=pci.0,addr=0x4,drive=drive-virtio-disk0,id=virtio-disk0,bootindex=1 -drive file=/var/lib/libvirt/images/T23L-namenode2.iso,format=raw,if=none,id=drive-ide0-0-0,readonly=on -device ide-cd,bus=ide.0,unit=0,drive=drive-ide0-0-0,id=ide0-0-0 -netdev tap,fd=27,id=hostnet0,vhost=on,vhostfd=29 -device virtio-net-pci,netdev=hostnet0,id=net0,mac=52:54:00:86:fc:7a,bus=pci.0,addr=0x2 -chardev pty,id=charserial0 -device isa-serial,chardev=charserial0,id=serial0 -device virtio-balloon-pci,id=balloon0,bus=pci.0,addr=0x5 -msg timestamp=on 
19:09:50     1000     21247    1.00    3.00    0.00    0.00    4.00    41      0.00      0.00   22924   17472   0.01      0.00      0.00      0.00       0  pidstat -d -r -u -hl 1 

# Time        UID       PID    %usr %system  %guest   %wait    %CPU   CPU  minflt/s  majflt/s     VSZ     RSS   %MEM   kB_rd/s   kB_wr/s kB_ccwr/s iodelay  Command
19:09:51        0       354    0.00    1.00    0.00    0.00    1.00    12      0.00      0.00       0       0   0.00     -1.00     -1.00     -1.00       0  ksmd
19:09:51        0       773    1.00    0.00    0.00    0.00    1.00    33      0.00      0.00       0       0   0.00     -1.00     -1.00     -1.00       0  kworker/33:1H
19:09:51    64055      3331    0.00    1.00    0.00    0.00    1.00    32      0.00      0.00 35163940   49892   0.03     -1.00     -1.00     -1.00       0  qemu-system-x86_64 -enable-kvm -name guest=T23L-namenode,debug-threads=on -S -object secret,id=masterKey0,format=raw,file=/var/lib/libvirt/qemu/domain-1-T23L-namenode/master-key.aes -machine pc-i440fx-bionic,accel=kvm,usb=off,dump-guest-core=off -cpu Skylake-Server-IBRS -m 32768 -realtime mlock=off -smp 16,sockets=16,cores=1,threads=1 -uuid d7b3a402-fd55-4996-b667-a6b2ae76342c -display none -no-user-config -nodefaults -chardev socket,id=charmonitor,path=/var/lib/libvirt/qemu/domain-1-T23L-namenode/monitor.sock,server,nowait -mon chardev=charmonitor,id=monitor,mode=control -rtc base=utc,driftfix=slew -global kvm-pit.lost_tick_policy=delay -no-hpet -no-shutdown -global PIIX4_PM.disable_s3=1 -global PIIX4_PM.disable_s4=1 -boot strict=on -device ich9-usb-ehci1,id=usb,bus=pci.0,addr=0x3.0x7 -device ich9-usb-uhci1,masterbus=usb.0,firstport=0,bus=pci.0,multifunction=on,addr=0x3 -device ich9-usb-uhci2,masterbus=usb.0,firstport=2,bus=pci.0,addr=0x3.0x1 -device ich9-usb-uhci3,masterbus=usb.0,firstport=4,bus=pci.0,addr=0x3.0x2 -drive file=/var/lib/libvirt/images/T23L-namenode.img,format=raw,if=none,id=drive-virtio-disk0 -device virtio-blk-pci,scsi=off,bus=pci.0,addr=0x4,drive=drive-virtio-disk0,id=virtio-disk0,bootindex=1 -drive file=/var/lib/libvirt/images/T23L-namenode.iso,format=raw,if=none,id=drive-ide0-0-0,readonly=on -device ide-cd,bus=ide.0,unit=0,drive=drive-ide0-0-0,id=ide0-0-0 -netdev tap,fd=25,id=hostnet0,vhost=on,vhostfd=27 -device virtio-net-pci,netdev=hostnet0,id=net0,mac=52:54:00:d3:c2:69,bus=pci.0,addr=0x2 -chardev pty,id=charserial0 -device isa-serial,chardev=charserial0,id=serial0 -device virtio-balloon-pci,id=balloon0,bus=pci.0,addr=0x5 -msg timestamp=on 