Linux 4.15.0-99-generic (team-23-hw6-ins2) 	05/02/20 	_x86_64_	(48 CPU)

# Time        UID       PID    %usr %system  %guest   %wait    %CPU   CPU  minflt/s  majflt/s     VSZ     RSS   %MEM   kB_rd/s   kB_wr/s kB_ccwr/s iodelay  Command
22:05:52        0       354    0.00    1.94    0.00    0.00    1.94     9      0.00      0.00       0       0   0.00     -1.00     -1.00     -1.00       0  ksmd
22:05:52    64055      3421    0.00    0.97    0.00    0.00    0.97    43      0.00      0.00 35163940   49528   0.03     -1.00     -1.00     -1.00       0  qemu-system-x86_64 -enable-kvm -name guest=T23L-namenode,debug-threads=on -S -object secret,id=masterKey0,format=raw,file=/var/lib/libvirt/qemu/domain-1-T23L-namenode/master-key.aes -machine pc-i440fx-bionic,accel=kvm,usb=off,dump-guest-core=off -cpu Skylake-Server-IBRS -m 32768 -realtime mlock=off -smp 16,sockets=16,cores=1,threads=1 -uuid d7b3a402-fd55-4996-b667-a6b2ae76342c -display none -no-user-config -nodefaults -chardev socket,id=charmonitor,path=/var/lib/libvirt/qemu/domain-1-T23L-namenode/monitor.sock,server,nowait -mon chardev=charmonitor,id=monitor,mode=control -rtc base=utc,driftfix=slew -global kvm-pit.lost_tick_policy=delay -no-hpet -no-shutdown -global PIIX4_PM.disable_s3=1 -global PIIX4_PM.disable_s4=1 -boot strict=on -device ich9-usb-ehci1,id=usb,bus=pci.0,addr=0x3.0x7 -device ich9-usb-uhci1,masterbus=usb.0,firstport=0,bus=pci.0,multifunction=on,addr=0x3 -device ich9-usb-uhci2,masterbus=usb.0,firstport=2,bus=pci.0,addr=0x3.0x1 -device ich9-usb-uhci3,masterbus=usb.0,firstport=4,bus=pci.0,addr=0x3.0x2 -drive file=/var/lib/libvirt/images/T23L-namenode.img,format=raw,if=none,id=drive-virtio-disk0 -device virtio-blk-pci,scsi=off,bus=pci.0,addr=0x4,drive=drive-virtio-disk0,id=virtio-disk0,bootindex=1 -drive file=/var/lib/libvirt/images/T23L-namenode.iso,format=raw,if=none,id=drive-ide0-0-0,readonly=on -device ide-cd,bus=ide.0,unit=0,drive=drive-ide0-0-0,id=ide0-0-0 -netdev tap,fd=25,id=hostnet0,vhost=on,vhostfd=27 -device virtio-net-pci,netdev=hostnet0,id=net0,mac=52:54:00:d3:c2:69,bus=pci.0,addr=0x2 -chardev pty,id=charserial0 -device isa-serial,chardev=charserial0,id=serial0 -device virtio-balloon-pci,id=balloon0,bus=pci.0,addr=0x5 -msg timestamp=on 
22:05:52    64055      4859   12.62   70.87  100.00    0.00  100.00    22    148.54      0.00 39664760 2353332   1.20     -1.00     -1.00     -1.00       0  qemu-system-x86_64 -enable-kvm -name guest=T23L-namenode2,debug-threads=on -S -object secret,id=masterKey0,format=raw,file=/var/lib/libvirt/qemu/domain-2-T23L-namenode2/master-key.aes -machine pc-i440fx-bionic,accel=kvm,usb=off,dump-guest-core=off -cpu Skylake-Server-IBRS -m 32768 -realtime mlock=off -smp 16,sockets=16,cores=1,threads=1 -uuid 276930c5-0f99-424f-94e1-069dc6b2ce01 -display none -no-user-config -nodefaults -chardev socket,id=charmonitor,path=/var/lib/libvirt/qemu/domain-2-T23L-namenode2/monitor.sock,server,nowait -mon chardev=charmonitor,id=monitor,mode=control -rtc base=utc,driftfix=slew -global kvm-pit.lost_tick_policy=delay -no-hpet -no-shutdown -global PIIX4_PM.disable_s3=1 -global PIIX4_PM.disable_s4=1 -boot strict=on -device ich9-usb-ehci1,id=usb,bus=pci.0,addr=0x3.0x7 -device ich9-usb-uhci1,masterbus=usb.0,firstport=0,bus=pci.0,multifunction=on,addr=0x3 -device ich9-usb-uhci2,masterbus=usb.0,firstport=2,bus=pci.0,addr=0x3.0x1 -device ich9-usb-uhci3,masterbus=usb.0,firstport=4,bus=pci.0,addr=0x3.0x2 -drive file=/var/lib/libvirt/images/T23L-namenode2.img,format=raw,if=none,id=drive-virtio-disk0 -device virtio-blk-pci,scsi=off,bus=pci.0,addr=0x4,drive=drive-virtio-disk0,id=virtio-disk0,bootindex=1 -drive file=/var/lib/libvirt/images/T23L-namenode2.iso,format=raw,if=none,id=drive-ide0-0-0,readonly=on -device ide-cd,bus=ide.0,unit=0,drive=drive-ide0-0-0,id=ide0-0-0 -netdev tap,fd=27,id=hostnet0,vhost=on,vhostfd=29 -device virtio-net-pci,netdev=hostnet0,id=net0,mac=52:54:00:e9:a4:c7,bus=pci.0,addr=0x2 -chardev pty,id=charserial0 -device isa-serial,chardev=charserial0,id=serial0 -device virtio-balloon-pci,id=balloon0,bus=pci.0,addr=0x5 -msg timestamp=on 
22:05:52     1000      7969    0.97    2.91    0.00    0.00    3.88    15   2689.32      0.00   23104   17268   0.01      0.00      0.00      0.00       0  pidstat -d -r -u -hl 1 

# Time        UID       PID    %usr %system  %guest   %wait    %CPU   CPU  minflt/s  majflt/s     VSZ     RSS   %MEM   kB_rd/s   kB_wr/s kB_ccwr/s iodelay  Command
22:05:53        0      2453    0.00    1.00    0.00    0.00    1.00    23      0.00      0.00  110780    3848   0.00     -1.00     -1.00     -1.00       0  /usr/sbin/irqbalance --foreground 
22:05:53    64055      4859   14.00   83.00  100.00    0.00  100.00    22    169.00      0.00 39664760 2353332   1.20     -1.00     -1.00     -1.00       0  qemu-system-x86_64 -enable-kvm -name guest=T23L-namenode2,debug-threads=on -S -object secret,id=masterKey0,format=raw,file=/var/lib/libvirt/qemu/domain-2-T23L-namenode2/master-key.aes -machine pc-i440fx-bionic,accel=kvm,usb=off,dump-guest-core=off -cpu Skylake-Server-IBRS -m 32768 -realtime mlock=off -smp 16,sockets=16,cores=1,threads=1 -uuid 276930c5-0f99-424f-94e1-069dc6b2ce01 -display none -no-user-config -nodefaults -chardev socket,id=charmonitor,path=/var/lib/libvirt/qemu/domain-2-T23L-namenode2/monitor.sock,server,nowait -mon chardev=charmonitor,id=monitor,mode=control -rtc base=utc,driftfix=slew -global kvm-pit.lost_tick_policy=delay -no-hpet -no-shutdown -global PIIX4_PM.disable_s3=1 -global PIIX4_PM.disable_s4=1 -boot strict=on -device ich9-usb-ehci1,id=usb,bus=pci.0,addr=0x3.0x7 -device ich9-usb-uhci1,masterbus=usb.0,firstport=0,bus=pci.0,multifunction=on,addr=0x3 -device ich9-usb-uhci2,masterbus=usb.0,firstport=2,bus=pci.0,addr=0x3.0x1 -device ich9-usb-uhci3,masterbus=usb.0,firstport=4,bus=pci.0,addr=0x3.0x2 -drive file=/var/lib/libvirt/images/T23L-namenode2.img,format=raw,if=none,id=drive-virtio-disk0 -device virtio-blk-pci,scsi=off,bus=pci.0,addr=0x4,drive=drive-virtio-disk0,id=virtio-disk0,bootindex=1 -drive file=/var/lib/libvirt/images/T23L-namenode2.iso,format=raw,if=none,id=drive-ide0-0-0,readonly=on -device ide-cd,bus=ide.0,unit=0,drive=drive-ide0-0-0,id=ide0-0-0 -netdev tap,fd=27,id=hostnet0,vhost=on,vhostfd=29 -device virtio-net-pci,netdev=hostnet0,id=net0,mac=52:54:00:e9:a4:c7,bus=pci.0,addr=0x2 -chardev pty,id=charserial0 -device isa-serial,chardev=charserial0,id=serial0 -device virtio-balloon-pci,id=balloon0,bus=pci.0,addr=0x5 -msg timestamp=on 
22:05:53        0      4892    0.00    1.00    0.00    0.00    1.00    18      0.00      0.00       0       0   0.00     -1.00     -1.00     -1.00       0  kvm-pit/4859
22:05:53     1000      7969    2.00    1.00    0.00    0.00    3.00    15    103.00      0.00   23104   17532   0.01      0.00      4.00      0.00       0  pidstat -d -r -u -hl 1 

# Time        UID       PID    %usr %system  %guest   %wait    %CPU   CPU  minflt/s  majflt/s     VSZ     RSS   %MEM   kB_rd/s   kB_wr/s kB_ccwr/s iodelay  Command
22:05:54    64055      3421    0.00    1.00    0.00    0.00    1.00    43      0.00      0.00 35163940   49528   0.03     -1.00     -1.00     -1.00       0  qemu-system-x86_64 -enable-kvm -name guest=T23L-namenode,debug-threads=on -S -object secret,id=masterKey0,format=raw,file=/var/lib/libvirt/qemu/domain-1-T23L-namenode/master-key.aes -machine pc-i440fx-bionic,accel=kvm,usb=off,dump-guest-core=off -cpu Skylake-Server-IBRS -m 32768 -realtime mlock=off -smp 16,sockets=16,cores=1,threads=1 -uuid d7b3a402-fd55-4996-b667-a6b2ae76342c -display none -no-user-config -nodefaults -chardev socket,id=charmonitor,path=/var/lib/libvirt/qemu/domain-1-T23L-namenode/monitor.sock,server,nowait -mon chardev=charmonitor,id=monitor,mode=control -rtc base=utc,driftfix=slew -global kvm-pit.lost_tick_policy=delay -no-hpet -no-shutdown -global PIIX4_PM.disable_s3=1 -global PIIX4_PM.disable_s4=1 -boot strict=on -device ich9-usb-ehci1,id=usb,bus=pci.0,addr=0x3.0x7 -device ich9-usb-uhci1,masterbus=usb.0,firstport=0,bus=pci.0,multifunction=on,addr=0x3 -device ich9-usb-uhci2,masterbus=usb.0,firstport=2,bus=pci.0,addr=0x3.0x1 -device ich9-usb-uhci3,masterbus=usb.0,firstport=4,bus=pci.0,addr=0x3.0x2 -drive file=/var/lib/libvirt/images/T23L-namenode.img,format=raw,if=none,id=drive-virtio-disk0 -device virtio-blk-pci,scsi=off,bus=pci.0,addr=0x4,drive=drive-virtio-disk0,id=virtio-disk0,bootindex=1 -drive file=/var/lib/libvirt/images/T23L-namenode.iso,format=raw,if=none,id=drive-ide0-0-0,readonly=on -device ide-cd,bus=ide.0,unit=0,drive=drive-ide0-0-0,id=ide0-0-0 -netdev tap,fd=25,id=hostnet0,vhost=on,vhostfd=27 -device virtio-net-pci,netdev=hostnet0,id=net0,mac=52:54:00:d3:c2:69,bus=pci.0,addr=0x2 -chardev pty,id=charserial0 -device isa-serial,chardev=charserial0,id=serial0 -device virtio-balloon-pci,id=balloon0,bus=pci.0,addr=0x5 -msg timestamp=on 
22:05:54    64055      4859    8.00   79.00  100.00    0.00  100.00     3     42.00      0.00 39664760 2353332   1.20     -1.00     -1.00     -1.00       0  qemu-system-x86_64 -enable-kvm -name guest=T23L-namenode2,debug-threads=on -S -object secret,id=masterKey0,format=raw,file=/var/lib/libvirt/qemu/domain-2-T23L-namenode2/master-key.aes -machine pc-i440fx-bionic,accel=kvm,usb=off,dump-guest-core=off -cpu Skylake-Server-IBRS -m 32768 -realtime mlock=off -smp 16,sockets=16,cores=1,threads=1 -uuid 276930c5-0f99-424f-94e1-069dc6b2ce01 -display none -no-user-config -nodefaults -chardev socket,id=charmonitor,path=/var/lib/libvirt/qemu/domain-2-T23L-namenode2/monitor.sock,server,nowait -mon chardev=charmonitor,id=monitor,mode=control -rtc base=utc,driftfix=slew -global kvm-pit.lost_tick_policy=delay -no-hpet -no-shutdown -global PIIX4_PM.disable_s3=1 -global PIIX4_PM.disable_s4=1 -boot strict=on -device ich9-usb-ehci1,id=usb,bus=pci.0,addr=0x3.0x7 -device ich9-usb-uhci1,masterbus=usb.0,firstport=0,bus=pci.0,multifunction=on,addr=0x3 -device ich9-usb-uhci2,masterbus=usb.0,firstport=2,bus=pci.0,addr=0x3.0x1 -device ich9-usb-uhci3,masterbus=usb.0,firstport=4,bus=pci.0,addr=0x3.0x2 -drive file=/var/lib/libvirt/images/T23L-namenode2.img,format=raw,if=none,id=drive-virtio-disk0 -device virtio-blk-pci,scsi=off,bus=pci.0,addr=0x4,drive=drive-virtio-disk0,id=virtio-disk0,bootindex=1 -drive file=/var/lib/libvirt/images/T23L-namenode2.iso,format=raw,if=none,id=drive-ide0-0-0,readonly=on -device ide-cd,bus=ide.0,unit=0,drive=drive-ide0-0-0,id=ide0-0-0 -netdev tap,fd=27,id=hostnet0,vhost=on,vhostfd=29 -device virtio-net-pci,netdev=hostnet0,id=net0,mac=52:54:00:e9:a4:c7,bus=pci.0,addr=0x2 -chardev pty,id=charserial0 -device isa-serial,chardev=charserial0,id=serial0 -device virtio-balloon-pci,id=balloon0,bus=pci.0,addr=0x5 -msg timestamp=on 
22:05:54     1000      7969    2.00    2.00    0.00    0.00    4.00    15      0.00      0.00   23104   17532   0.01      0.00      0.00      0.00       0  pidstat -d -r -u -hl 1 

# Time        UID       PID    %usr %system  %guest   %wait    %CPU   CPU  minflt/s  majflt/s     VSZ     RSS   %MEM   kB_rd/s   kB_wr/s kB_ccwr/s iodelay  Command
22:05:55        0       354    0.00    1.00    0.00    0.00    1.00     9      0.00      0.00       0       0   0.00     -1.00     -1.00     -1.00       0  ksmd
22:05:55        0       797    0.00    1.00    0.00    1.00    1.00    46      0.00      0.00       0       0   0.00     -1.00     -1.00     -1.00      13  jbd2/sda1-8
22:05:55    64055      4859    7.00   91.00  100.00    0.00  100.00     3     63.00      0.00 39664760 2353332   1.20     -1.00     -1.00     -1.00       0  qemu-system-x86_64 -enable-kvm -name guest=T23L-namenode2,debug-threads=on -S -object secret,id=masterKey0,format=raw,file=/var/lib/libvirt/qemu/domain-2-T23L-namenode2/master-key.aes -machine pc-i440fx-bionic,accel=kvm,usb=off,dump-guest-core=off -cpu Skylake-Server-IBRS -m 32768 -realtime mlock=off -smp 16,sockets=16,cores=1,threads=1 -uuid 276930c5-0f99-424f-94e1-069dc6b2ce01 -display none -no-user-config -nodefaults -chardev socket,id=charmonitor,path=/var/lib/libvirt/qemu/domain-2-T23L-namenode2/monitor.sock,server,nowait -mon chardev=charmonitor,id=monitor,mode=control -rtc base=utc,driftfix=slew -global kvm-pit.lost_tick_policy=delay -no-hpet -no-shutdown -global PIIX4_PM.disable_s3=1 -global PIIX4_PM.disable_s4=1 -boot strict=on -device ich9-usb-ehci1,id=usb,bus=pci.0,addr=0x3.0x7 -device ich9-usb-uhci1,masterbus=usb.0,firstport=0,bus=pci.0,multifunction=on,addr=0x3 -device ich9-usb-uhci2,masterbus=usb.0,firstport=2,bus=pci.0,addr=0x3.0x1 -device ich9-usb-uhci3,masterbus=usb.0,firstport=4,bus=pci.0,addr=0x3.0x2 -drive file=/var/lib/libvirt/images/T23L-namenode2.img,format=raw,if=none,id=drive-virtio-disk0 -device virtio-blk-pci,scsi=off,bus=pci.0,addr=0x4,drive=drive-virtio-disk0,id=virtio-disk0,bootindex=1 -drive file=/var/lib/libvirt/images/T23L-namenode2.iso,format=raw,if=none,id=drive-ide0-0-0,readonly=on -device ide-cd,bus=ide.0,unit=0,drive=drive-ide0-0-0,id=ide0-0-0 -netdev tap,fd=27,id=hostnet0,vhost=on,vhostfd=29 -device virtio-net-pci,netdev=hostnet0,id=net0,mac=52:54:00:e9:a4:c7,bus=pci.0,addr=0x2 -chardev pty,id=charserial0 -device isa-serial,chardev=charserial0,id=serial0 -device virtio-balloon-pci,id=balloon0,bus=pci.0,addr=0x5 -msg timestamp=on 
22:05:55     1000      7969    0.00    3.00    0.00    0.00    3.00    15      0.00      0.00   23104   17532   0.01      0.00      4.00      0.00       0  pidstat -d -r -u -hl 1 

# Time        UID       PID    %usr %system  %guest   %wait    %CPU   CPU  minflt/s  majflt/s     VSZ     RSS   %MEM   kB_rd/s   kB_wr/s kB_ccwr/s iodelay  Command
22:05:56    64055      4859    8.00   94.00  100.00    1.00  100.00     3    257.00      0.00 39664760 2353332   1.20     -1.00     -1.00     -1.00       0  qemu-system-x86_64 -enable-kvm -name guest=T23L-namenode2,debug-threads=on -S -object secret,id=masterKey0,format=raw,file=/var/lib/libvirt/qemu/domain-2-T23L-namenode2/master-key.aes -machine pc-i440fx-bionic,accel=kvm,usb=off,dump-guest-core=off -cpu Skylake-Server-IBRS -m 32768 -realtime mlock=off -smp 16,sockets=16,cores=1,threads=1 -uuid 276930c5-0f99-424f-94e1-069dc6b2ce01 -display none -no-user-config -nodefaults -chardev socket,id=charmonitor,path=/var/lib/libvirt/qemu/domain-2-T23L-namenode2/monitor.sock,server,nowait -mon chardev=charmonitor,id=monitor,mode=control -rtc base=utc,driftfix=slew -global kvm-pit.lost_tick_policy=delay -no-hpet -no-shutdown -global PIIX4_PM.disable_s3=1 -global PIIX4_PM.disable_s4=1 -boot strict=on -device ich9-usb-ehci1,id=usb,bus=pci.0,addr=0x3.0x7 -device ich9-usb-uhci1,masterbus=usb.0,firstport=0,bus=pci.0,multifunction=on,addr=0x3 -device ich9-usb-uhci2,masterbus=usb.0,firstport=2,bus=pci.0,addr=0x3.0x1 -device ich9-usb-uhci3,masterbus=usb.0,firstport=4,bus=pci.0,addr=0x3.0x2 -drive file=/var/lib/libvirt/images/T23L-namenode2.img,format=raw,if=none,id=drive-virtio-disk0 -device virtio-blk-pci,scsi=off,bus=pci.0,addr=0x4,drive=drive-virtio-disk0,id=virtio-disk0,bootindex=1 -drive file=/var/lib/libvirt/images/T23L-namenode2.iso,format=raw,if=none,id=drive-ide0-0-0,readonly=on -device ide-cd,bus=ide.0,unit=0,drive=drive-ide0-0-0,id=ide0-0-0 -netdev tap,fd=27,id=hostnet0,vhost=on,vhostfd=29 -device virtio-net-pci,netdev=hostnet0,id=net0,mac=52:54:00:e9:a4:c7,bus=pci.0,addr=0x2 -chardev pty,id=charserial0 -device isa-serial,chardev=charserial0,id=serial0 -device virtio-balloon-pci,id=balloon0,bus=pci.0,addr=0x5 -msg timestamp=on 
22:05:56     1000      7969    1.00    3.00    0.00    0.00    4.00    15      1.00      0.00   23104   17532   0.01      0.00      4.00      0.00       0  pidstat -d -r -u -hl 1 

# Time        UID       PID    %usr %system  %guest   %wait    %CPU   CPU  minflt/s  majflt/s     VSZ     RSS   %MEM   kB_rd/s   kB_wr/s kB_ccwr/s iodelay  Command
22:05:57    64055      3421    0.00    1.00    0.00    0.00    1.00    43      0.00      0.00 35163940   49528   0.03     -1.00     -1.00     -1.00       0  qemu-system-x86_64 -enable-kvm -name guest=T23L-namenode,debug-threads=on -S -object secret,id=masterKey0,format=raw,file=/var/lib/libvirt/qemu/domain-1-T23L-namenode/master-key.aes -machine pc-i440fx-bionic,accel=kvm,usb=off,dump-guest-core=off -cpu Skylake-Server-IBRS -m 32768 -realtime mlock=off -smp 16,sockets=16,cores=1,threads=1 -uuid d7b3a402-fd55-4996-b667-a6b2ae76342c -display none -no-user-config -nodefaults -chardev socket,id=charmonitor,path=/var/lib/libvirt/qemu/domain-1-T23L-namenode/monitor.sock,server,nowait -mon chardev=charmonitor,id=monitor,mode=control -rtc base=utc,driftfix=slew -global kvm-pit.lost_tick_policy=delay -no-hpet -no-shutdown -global PIIX4_PM.disable_s3=1 -global PIIX4_PM.disable_s4=1 -boot strict=on -device ich9-usb-ehci1,id=usb,bus=pci.0,addr=0x3.0x7 -device ich9-usb-uhci1,masterbus=usb.0,firstport=0,bus=pci.0,multifunction=on,addr=0x3 -device ich9-usb-uhci2,masterbus=usb.0,firstport=2,bus=pci.0,addr=0x3.0x1 -device ich9-usb-uhci3,masterbus=usb.0,firstport=4,bus=pci.0,addr=0x3.0x2 -drive file=/var/lib/libvirt/images/T23L-namenode.img,format=raw,if=none,id=drive-virtio-disk0 -device virtio-blk-pci,scsi=off,bus=pci.0,addr=0x4,drive=drive-virtio-disk0,id=virtio-disk0,bootindex=1 -drive file=/var/lib/libvirt/images/T23L-namenode.iso,format=raw,if=none,id=drive-ide0-0-0,readonly=on -device ide-cd,bus=ide.0,unit=0,drive=drive-ide0-0-0,id=ide0-0-0 -netdev tap,fd=25,id=hostnet0,vhost=on,vhostfd=27 -device virtio-net-pci,netdev=hostnet0,id=net0,mac=52:54:00:d3:c2:69,bus=pci.0,addr=0x2 -chardev pty,id=charserial0 -device isa-serial,chardev=charserial0,id=serial0 -device virtio-balloon-pci,id=balloon0,bus=pci.0,addr=0x5 -msg timestamp=on 
22:05:57    64055      4859    9.00   99.00  100.00    0.00  100.00     3    307.00      0.00 39664760 2353332   1.20     -1.00     -1.00     -1.00       0  qemu-system-x86_64 -enable-kvm -name guest=T23L-namenode2,debug-threads=on -S -object secret,id=masterKey0,format=raw,file=/var/lib/libvirt/qemu/domain-2-T23L-namenode2/master-key.aes -machine pc-i440fx-bionic,accel=kvm,usb=off,dump-guest-core=off -cpu Skylake-Server-IBRS -m 32768 -realtime mlock=off -smp 16,sockets=16,cores=1,threads=1 -uuid 276930c5-0f99-424f-94e1-069dc6b2ce01 -display none -no-user-config -nodefaults -chardev socket,id=charmonitor,path=/var/lib/libvirt/qemu/domain-2-T23L-namenode2/monitor.sock,server,nowait -mon chardev=charmonitor,id=monitor,mode=control -rtc base=utc,driftfix=slew -global kvm-pit.lost_tick_policy=delay -no-hpet -no-shutdown -global PIIX4_PM.disable_s3=1 -global PIIX4_PM.disable_s4=1 -boot strict=on -device ich9-usb-ehci1,id=usb,bus=pci.0,addr=0x3.0x7 -device ich9-usb-uhci1,masterbus=usb.0,firstport=0,bus=pci.0,multifunction=on,addr=0x3 -device ich9-usb-uhci2,masterbus=usb.0,firstport=2,bus=pci.0,addr=0x3.0x1 -device ich9-usb-uhci3,masterbus=usb.0,firstport=4,bus=pci.0,addr=0x3.0x2 -drive file=/var/lib/libvirt/images/T23L-namenode2.img,format=raw,if=none,id=drive-virtio-disk0 -device virtio-blk-pci,scsi=off,bus=pci.0,addr=0x4,drive=drive-virtio-disk0,id=virtio-disk0,bootindex=1 -drive file=/var/lib/libvirt/images/T23L-namenode2.iso,format=raw,if=none,id=drive-ide0-0-0,readonly=on -device ide-cd,bus=ide.0,unit=0,drive=drive-ide0-0-0,id=ide0-0-0 -netdev tap,fd=27,id=hostnet0,vhost=on,vhostfd=29 -device virtio-net-pci,netdev=hostnet0,id=net0,mac=52:54:00:e9:a4:c7,bus=pci.0,addr=0x2 -chardev pty,id=charserial0 -device isa-serial,chardev=charserial0,id=serial0 -device virtio-balloon-pci,id=balloon0,bus=pci.0,addr=0x5 -msg timestamp=on 
22:05:57     1000      7969    1.00    2.00    0.00    0.00    3.00    15      1.00      0.00   23104   17532   0.01      0.00      0.00      0.00       0  pidstat -d -r -u -hl 1 

# Time        UID       PID    %usr %system  %guest   %wait    %CPU   CPU  minflt/s  majflt/s     VSZ     RSS   %MEM   kB_rd/s   kB_wr/s kB_ccwr/s iodelay  Command
22:05:58        0       354    0.00    1.00    0.00    0.00    1.00     9      0.00      0.00       0       0   0.00     -1.00     -1.00     -1.00       0  ksmd
22:05:58    64055      4859   10.00   91.00  100.00    0.00  100.00    27    119.00      0.00 39697544 2353332   1.20     -1.00     -1.00     -1.00       0  qemu-system-x86_64 -enable-kvm -name guest=T23L-namenode2,debug-threads=on -S -object secret,id=masterKey0,format=raw,file=/var/lib/libvirt/qemu/domain-2-T23L-namenode2/master-key.aes -machine pc-i440fx-bionic,accel=kvm,usb=off,dump-guest-core=off -cpu Skylake-Server-IBRS -m 32768 -realtime mlock=off -smp 16,sockets=16,cores=1,threads=1 -uuid 276930c5-0f99-424f-94e1-069dc6b2ce01 -display none -no-user-config -nodefaults -chardev socket,id=charmonitor,path=/var/lib/libvirt/qemu/domain-2-T23L-namenode2/monitor.sock,server,nowait -mon chardev=charmonitor,id=monitor,mode=control -rtc base=utc,driftfix=slew -global kvm-pit.lost_tick_policy=delay -no-hpet -no-shutdown -global PIIX4_PM.disable_s3=1 -global PIIX4_PM.disable_s4=1 -boot strict=on -device ich9-usb-ehci1,id=usb,bus=pci.0,addr=0x3.0x7 -device ich9-usb-uhci1,masterbus=usb.0,firstport=0,bus=pci.0,multifunction=on,addr=0x3 -device ich9-usb-uhci2,masterbus=usb.0,firstport=2,bus=pci.0,addr=0x3.0x1 -device ich9-usb-uhci3,masterbus=usb.0,firstport=4,bus=pci.0,addr=0x3.0x2 -drive file=/var/lib/libvirt/images/T23L-namenode2.img,format=raw,if=none,id=drive-virtio-disk0 -device virtio-blk-pci,scsi=off,bus=pci.0,addr=0x4,drive=drive-virtio-disk0,id=virtio-disk0,bootindex=1 -drive file=/var/lib/libvirt/images/T23L-namenode2.iso,format=raw,if=none,id=drive-ide0-0-0,readonly=on -device ide-cd,bus=ide.0,unit=0,drive=drive-ide0-0-0,id=ide0-0-0 -netdev tap,fd=27,id=hostnet0,vhost=on,vhostfd=29 -device virtio-net-pci,netdev=hostnet0,id=net0,mac=52:54:00:e9:a4:c7,bus=pci.0,addr=0x2 -chardev pty,id=charserial0 -device isa-serial,chardev=charserial0,id=serial0 -device virtio-balloon-pci,id=balloon0,bus=pci.0,addr=0x5 -msg timestamp=on 
22:05:58     1000      7969    2.00    2.00    0.00    0.00    4.00    15      0.00      0.00   23104   17532   0.01      0.00      4.00      0.00       0  pidstat -d -r -u -hl 1 

# Time        UID       PID    %usr %system  %guest   %wait    %CPU   CPU  minflt/s  majflt/s     VSZ     RSS   %MEM   kB_rd/s   kB_wr/s kB_ccwr/s iodelay  Command
22:05:59    64055      4859    3.00   96.00  100.00    0.00  100.00    27     15.00      0.00 39697544 2353332   1.20     -1.00     -1.00     -1.00       0  qemu-system-x86_64 -enable-kvm -name guest=T23L-namenode2,debug-threads=on -S -object secret,id=masterKey0,format=raw,file=/var/lib/libvirt/qemu/domain-2-T23L-namenode2/master-key.aes -machine pc-i440fx-bionic,accel=kvm,usb=off,dump-guest-core=off -cpu Skylake-Server-IBRS -m 32768 -realtime mlock=off -smp 16,sockets=16,cores=1,threads=1 -uuid 276930c5-0f99-424f-94e1-069dc6b2ce01 -display none -no-user-config -nodefaults -chardev socket,id=charmonitor,path=/var/lib/libvirt/qemu/domain-2-T23L-namenode2/monitor.sock,server,nowait -mon chardev=charmonitor,id=monitor,mode=control -rtc base=utc,driftfix=slew -global kvm-pit.lost_tick_policy=delay -no-hpet -no-shutdown -global PIIX4_PM.disable_s3=1 -global PIIX4_PM.disable_s4=1 -boot strict=on -device ich9-usb-ehci1,id=usb,bus=pci.0,addr=0x3.0x7 -device ich9-usb-uhci1,masterbus=usb.0,firstport=0,bus=pci.0,multifunction=on,addr=0x3 -device ich9-usb-uhci2,masterbus=usb.0,firstport=2,bus=pci.0,addr=0x3.0x1 -device ich9-usb-uhci3,masterbus=usb.0,firstport=4,bus=pci.0,addr=0x3.0x2 -drive file=/var/lib/libvirt/images/T23L-namenode2.img,format=raw,if=none,id=drive-virtio-disk0 -device virtio-blk-pci,scsi=off,bus=pci.0,addr=0x4,drive=drive-virtio-disk0,id=virtio-disk0,bootindex=1 -drive file=/var/lib/libvirt/images/T23L-namenode2.iso,format=raw,if=none,id=drive-ide0-0-0,readonly=on -device ide-cd,bus=ide.0,unit=0,drive=drive-ide0-0-0,id=ide0-0-0 -netdev tap,fd=27,id=hostnet0,vhost=on,vhostfd=29 -device virtio-net-pci,netdev=hostnet0,id=net0,mac=52:54:00:e9:a4:c7,bus=pci.0,addr=0x2 -chardev pty,id=charserial0 -device isa-serial,chardev=charserial0,id=serial0 -device virtio-balloon-pci,id=balloon0,bus=pci.0,addr=0x5 -msg timestamp=on 
22:05:59     1000      7969    1.00    2.00    0.00    0.00    3.00    15      0.00      0.00   23104   17532   0.01      0.00      4.00      0.00       0  pidstat -d -r -u -hl 1 

# Time        UID       PID    %usr %system  %guest   %wait    %CPU   CPU  minflt/s  majflt/s     VSZ     RSS   %MEM   kB_rd/s   kB_wr/s kB_ccwr/s iodelay  Command
22:06:00        0         1    0.00    0.00    0.00    0.00    0.00    14    129.00      0.00  225408    8896   0.00     -1.00     -1.00     -1.00       0  /sbin/init 
22:06:00        0       354    0.00    1.00    0.00    0.00    1.00     9      0.00      0.00       0       0   0.00     -1.00     -1.00     -1.00       0  ksmd
22:06:00        0       797    0.00    0.00    0.00    0.00    0.00    46      0.00      0.00       0       0   0.00     -1.00     -1.00     -1.00      35  jbd2/sda1-8
22:06:00        0       882    0.00    0.00    0.00    0.00    0.00     6     45.00      0.00  149340   51220   0.03     -1.00     -1.00     -1.00       0  /lib/systemd/systemd-journald 
22:06:00        0       939    0.00    1.00    0.00    0.00    1.00    42    696.00      0.00   46148    4984   0.00     -1.00     -1.00     -1.00       0  /lib/systemd/systemd-udevd 
22:06:00        0      3027    1.00    0.00    0.00    0.00    1.00    34      0.00      0.00 1621548   26568   0.01     -1.00     -1.00     -1.00       0  /usr/sbin/libvirtd 
22:06:00    64055      3421    0.00    1.00    0.00    0.00    1.00    43      0.00      0.00 35163940   49528   0.03     -1.00     -1.00     -1.00       0  qemu-system-x86_64 -enable-kvm -name guest=T23L-namenode,debug-threads=on -S -object secret,id=masterKey0,format=raw,file=/var/lib/libvirt/qemu/domain-1-T23L-namenode/master-key.aes -machine pc-i440fx-bionic,accel=kvm,usb=off,dump-guest-core=off -cpu Skylake-Server-IBRS -m 32768 -realtime mlock=off -smp 16,sockets=16,cores=1,threads=1 -uuid d7b3a402-fd55-4996-b667-a6b2ae76342c -display none -no-user-config -nodefaults -chardev socket,id=charmonitor,path=/var/lib/libvirt/qemu/domain-1-T23L-namenode/monitor.sock,server,nowait -mon chardev=charmonitor,id=monitor,mode=control -rtc base=utc,driftfix=slew -global kvm-pit.lost_tick_policy=delay -no-hpet -no-shutdown -global PIIX4_PM.disable_s3=1 -global PIIX4_PM.disable_s4=1 -boot strict=on -device ich9-usb-ehci1,id=usb,bus=pci.0,addr=0x3.0x7 -device ich9-usb-uhci1,masterbus=usb.0,firstport=0,bus=pci.0,multifunction=on,addr=0x3 -device ich9-usb-uhci2,masterbus=usb.0,firstport=2,bus=pci.0,addr=0x3.0x1 -device ich9-usb-uhci3,masterbus=usb.0,firstport=4,bus=pci.0,addr=0x3.0x2 -drive file=/var/lib/libvirt/images/T23L-namenode.img,format=raw,if=none,id=drive-virtio-disk0 -device virtio-blk-pci,scsi=off,bus=pci.0,addr=0x4,drive=drive-virtio-disk0,id=virtio-disk0,bootindex=1 -drive file=/var/lib/libvirt/images/T23L-namenode.iso,format=raw,if=none,id=drive-ide0-0-0,readonly=on -device ide-cd,bus=ide.0,unit=0,drive=drive-ide0-0-0,id=ide0-0-0 -netdev tap,fd=25,id=hostnet0,vhost=on,vhostfd=27 -device virtio-net-pci,netdev=hostnet0,id=net0,mac=52:54:00:d3:c2:69,bus=pci.0,addr=0x2 -chardev pty,id=charserial0 -device isa-serial,chardev=charserial0,id=serial0 -device virtio-balloon-pci,id=balloon0,bus=pci.0,addr=0x5 -msg timestamp=on 
22:06:00    64055      4859    4.00   68.00   94.00    0.00  100.00    17     16.00      0.00 39697544 2353332   1.20     -1.00     -1.00     -1.00       0  qemu-system-x86_64 -enable-kvm -name guest=T23L-namenode2,debug-threads=on -S -object secret,id=masterKey0,format=raw,file=/var/lib/libvirt/qemu/domain-2-T23L-namenode2/master-key.aes -machine pc-i440fx-bionic,accel=kvm,usb=off,dump-guest-core=off -cpu Skylake-Server-IBRS -m 32768 -realtime mlock=off -smp 16,sockets=16,cores=1,threads=1 -uuid 276930c5-0f99-424f-94e1-069dc6b2ce01 -display none -no-user-config -nodefaults -chardev socket,id=charmonitor,path=/var/lib/libvirt/qemu/domain-2-T23L-namenode2/monitor.sock,server,nowait -mon chardev=charmonitor,id=monitor,mode=control -rtc base=utc,driftfix=slew -global kvm-pit.lost_tick_policy=delay -no-hpet -no-shutdown -global PIIX4_PM.disable_s3=1 -global PIIX4_PM.disable_s4=1 -boot strict=on -device ich9-usb-ehci1,id=usb,bus=pci.0,addr=0x3.0x7 -device ich9-usb-uhci1,masterbus=usb.0,firstport=0,bus=pci.0,multifunction=on,addr=0x3 -device ich9-usb-uhci2,masterbus=usb.0,firstport=2,bus=pci.0,addr=0x3.0x1 -device ich9-usb-uhci3,masterbus=usb.0,firstport=4,bus=pci.0,addr=0x3.0x2 -drive file=/var/lib/libvirt/images/T23L-namenode2.img,format=raw,if=none,id=drive-virtio-disk0 -device virtio-blk-pci,scsi=off,bus=pci.0,addr=0x4,drive=drive-virtio-disk0,id=virtio-disk0,bootindex=1 -drive file=/var/lib/libvirt/images/T23L-namenode2.iso,format=raw,if=none,id=drive-ide0-0-0,readonly=on -device ide-cd,bus=ide.0,unit=0,drive=drive-ide0-0-0,id=ide0-0-0 -netdev tap,fd=27,id=hostnet0,vhost=on,vhostfd=29 -device virtio-net-pci,netdev=hostnet0,id=net0,mac=52:54:00:e9:a4:c7,bus=pci.0,addr=0x2 -chardev pty,id=charserial0 -device isa-serial,chardev=charserial0,id=serial0 -device virtio-balloon-pci,id=balloon0,bus=pci.0,addr=0x5 -msg timestamp=on 
22:06:00     1000      7969    1.00    2.00    0.00    0.00    3.00    15      0.00      0.00   23104   17532   0.01      0.00      0.00      0.00       0  pidstat -d -r -u -hl 1 

# Time        UID       PID    %usr %system  %guest   %wait    %CPU   CPU  minflt/s  majflt/s     VSZ     RSS   %MEM   kB_rd/s   kB_wr/s kB_ccwr/s iodelay  Command
22:06:01        0      2349    0.00    0.00    0.00    0.00    0.00    20      2.00      0.00   31748    3164   0.00     -1.00     -1.00     -1.00       0  /usr/sbin/cron -f 