Linux 4.15.0-99-generic (team-23-hw6-ins2) 	05/02/20 	_x86_64_	(48 CPU)

# Time        UID       PID    %usr %system  %guest   %wait    %CPU   CPU  minflt/s  majflt/s     VSZ     RSS   %MEM   kB_rd/s   kB_wr/s kB_ccwr/s iodelay  Command
20:39:08        0       354    0.00    0.96    0.00    0.00    0.96    42      0.00      0.00       0       0   0.00     -1.00     -1.00     -1.00       0  ksmd
20:39:08        0      2300    0.00    0.96    0.00    0.00    0.96    15      0.96      0.00  110780    3864   0.00     -1.00     -1.00     -1.00       0  /usr/sbin/irqbalance --foreground 
20:39:08    64055      3381    0.96    0.00    0.00    0.00    0.96    20      0.00      0.00 35163940   49812   0.03     -1.00     -1.00     -1.00       0  qemu-system-x86_64 -enable-kvm -name guest=T23L-namenode,debug-threads=on -S -object secret,id=masterKey0,format=raw,file=/var/lib/libvirt/qemu/domain-1-T23L-namenode/master-key.aes -machine pc-i440fx-bionic,accel=kvm,usb=off,dump-guest-core=off -cpu Skylake-Server-IBRS -m 32768 -realtime mlock=off -smp 16,sockets=16,cores=1,threads=1 -uuid d7b3a402-fd55-4996-b667-a6b2ae76342c -display none -no-user-config -nodefaults -chardev socket,id=charmonitor,path=/var/lib/libvirt/qemu/domain-1-T23L-namenode/monitor.sock,server,nowait -mon chardev=charmonitor,id=monitor,mode=control -rtc base=utc,driftfix=slew -global kvm-pit.lost_tick_policy=delay -no-hpet -no-shutdown -global PIIX4_PM.disable_s3=1 -global PIIX4_PM.disable_s4=1 -boot strict=on -device ich9-usb-ehci1,id=usb,bus=pci.0,addr=0x3.0x7 -device ich9-usb-uhci1,masterbus=usb.0,firstport=0,bus=pci.0,multifunction=on,addr=0x3 -device ich9-usb-uhci2,masterbus=usb.0,firstport=2,bus=pci.0,addr=0x3.0x1 -device ich9-usb-uhci3,masterbus=usb.0,firstport=4,bus=pci.0,addr=0x3.0x2 -drive file=/var/lib/libvirt/images/T23L-namenode.img,format=raw,if=none,id=drive-virtio-disk0 -device virtio-blk-pci,scsi=off,bus=pci.0,addr=0x4,drive=drive-virtio-disk0,id=virtio-disk0,bootindex=1 -drive file=/var/lib/libvirt/images/T23L-namenode.iso,format=raw,if=none,id=drive-ide0-0-0,readonly=on -device ide-cd,bus=ide.0,unit=0,drive=drive-ide0-0-0,id=ide0-0-0 -netdev tap,fd=25,id=hostnet0,vhost=on,vhostfd=27 -device virtio-net-pci,netdev=hostnet0,id=net0,mac=52:54:00:d3:c2:69,bus=pci.0,addr=0x2 -chardev pty,id=charserial0 -device isa-serial,chardev=charserial0,id=serial0 -device virtio-balloon-pci,id=balloon0,bus=pci.0,addr=0x5 -msg timestamp=on 
20:39:08    64055      4748   10.58   89.42  100.00    0.00  100.00    10  14613.46      0.00 39131992 2334384   1.19     -1.00     -1.00     -1.00       0  qemu-system-x86_64 -enable-kvm -name guest=T23L-namenode2,debug-threads=on -S -object secret,id=masterKey0,format=raw,file=/var/lib/libvirt/qemu/domain-2-T23L-namenode2/master-key.aes -machine pc-i440fx-bionic,accel=kvm,usb=off,dump-guest-core=off -cpu Skylake-Server-IBRS -m 32768 -realtime mlock=off -smp 16,sockets=16,cores=1,threads=1 -uuid e69b750f-20dd-46e6-bbf0-13878144ae4e -display none -no-user-config -nodefaults -chardev socket,id=charmonitor,path=/var/lib/libvirt/qemu/domain-2-T23L-namenode2/monitor.sock,server,nowait -mon chardev=charmonitor,id=monitor,mode=control -rtc base=utc,driftfix=slew -global kvm-pit.lost_tick_policy=delay -no-hpet -no-shutdown -global PIIX4_PM.disable_s3=1 -global PIIX4_PM.disable_s4=1 -boot strict=on -device ich9-usb-ehci1,id=usb,bus=pci.0,addr=0x3.0x7 -device ich9-usb-uhci1,masterbus=usb.0,firstport=0,bus=pci.0,multifunction=on,addr=0x3 -device ich9-usb-uhci2,masterbus=usb.0,firstport=2,bus=pci.0,addr=0x3.0x1 -device ich9-usb-uhci3,masterbus=usb.0,firstport=4,bus=pci.0,addr=0x3.0x2 -drive file=/var/lib/libvirt/images/T23L-namenode2.img,format=raw,if=none,id=drive-virtio-disk0 -device virtio-blk-pci,scsi=off,bus=pci.0,addr=0x4,drive=drive-virtio-disk0,id=virtio-disk0,bootindex=1 -drive file=/var/lib/libvirt/images/T23L-namenode2.iso,format=raw,if=none,id=drive-ide0-0-0,readonly=on -device ide-cd,bus=ide.0,unit=0,drive=drive-ide0-0-0,id=ide0-0-0 -netdev tap,fd=27,id=hostnet0,vhost=on,vhostfd=29 -device virtio-net-pci,netdev=hostnet0,id=net0,mac=52:54:00:ce:2c:a2,bus=pci.0,addr=0x2 -chardev pty,id=charserial0 -device isa-serial,chardev=charserial0,id=serial0 -device virtio-balloon-pci,id=balloon0,bus=pci.0,addr=0x5 -msg timestamp=on 
20:39:08        0      4763    0.00    0.00    0.00    0.00    0.00    36      0.96      0.00       0       0   0.00     -1.00     -1.00     -1.00       0  vhost-4748
20:39:08        0      7491    0.00   17.31    0.00    0.00   17.31    41      0.00      0.00       0       0   0.00     -1.00     -1.00     -1.00      86  kworker/u98:0
20:39:08     1000      8162    0.96    1.92    0.00    0.00    2.88    32   2601.92      0.00   22720   16776   0.01      0.00      0.00      0.00       0  pidstat -d -r -u -hl 1 

# Time        UID       PID    %usr %system  %guest   %wait    %CPU   CPU  minflt/s  majflt/s     VSZ     RSS   %MEM   kB_rd/s   kB_wr/s kB_ccwr/s iodelay  Command
20:39:09    64055      4748    7.00   76.00  100.00    0.00  100.00    29    374.00      0.00 39131992 2334384   1.19     -1.00     -1.00     -1.00       0  qemu-system-x86_64 -enable-kvm -name guest=T23L-namenode2,debug-threads=on -S -object secret,id=masterKey0,format=raw,file=/var/lib/libvirt/qemu/domain-2-T23L-namenode2/master-key.aes -machine pc-i440fx-bionic,accel=kvm,usb=off,dump-guest-core=off -cpu Skylake-Server-IBRS -m 32768 -realtime mlock=off -smp 16,sockets=16,cores=1,threads=1 -uuid e69b750f-20dd-46e6-bbf0-13878144ae4e -display none -no-user-config -nodefaults -chardev socket,id=charmonitor,path=/var/lib/libvirt/qemu/domain-2-T23L-namenode2/monitor.sock,server,nowait -mon chardev=charmonitor,id=monitor,mode=control -rtc base=utc,driftfix=slew -global kvm-pit.lost_tick_policy=delay -no-hpet -no-shutdown -global PIIX4_PM.disable_s3=1 -global PIIX4_PM.disable_s4=1 -boot strict=on -device ich9-usb-ehci1,id=usb,bus=pci.0,addr=0x3.0x7 -device ich9-usb-uhci1,masterbus=usb.0,firstport=0,bus=pci.0,multifunction=on,addr=0x3 -device ich9-usb-uhci2,masterbus=usb.0,firstport=2,bus=pci.0,addr=0x3.0x1 -device ich9-usb-uhci3,masterbus=usb.0,firstport=4,bus=pci.0,addr=0x3.0x2 -drive file=/var/lib/libvirt/images/T23L-namenode2.img,format=raw,if=none,id=drive-virtio-disk0 -device virtio-blk-pci,scsi=off,bus=pci.0,addr=0x4,drive=drive-virtio-disk0,id=virtio-disk0,bootindex=1 -drive file=/var/lib/libvirt/images/T23L-namenode2.iso,format=raw,if=none,id=drive-ide0-0-0,readonly=on -device ide-cd,bus=ide.0,unit=0,drive=drive-ide0-0-0,id=ide0-0-0 -netdev tap,fd=27,id=hostnet0,vhost=on,vhostfd=29 -device virtio-net-pci,netdev=hostnet0,id=net0,mac=52:54:00:ce:2c:a2,bus=pci.0,addr=0x2 -chardev pty,id=charserial0 -device isa-serial,chardev=charserial0,id=serial0 -device virtio-balloon-pci,id=balloon0,bus=pci.0,addr=0x5 -msg timestamp=on 
20:39:09        0      7491    0.00   19.00    0.00    0.00   19.00    41      0.00      0.00       0       0   0.00     -1.00     -1.00     -1.00      81  kworker/u98:0
20:39:09     1000      8162    2.00    2.00    0.00    0.00    4.00    32    104.00      0.00   22720   17304   0.01      0.00      4.00      0.00       0  pidstat -d -r -u -hl 1 

# Time        UID       PID    %usr %system  %guest   %wait    %CPU   CPU  minflt/s  majflt/s     VSZ     RSS   %MEM   kB_rd/s   kB_wr/s kB_ccwr/s iodelay  Command
20:39:10    64055      4748   12.00   80.00  100.00    0.00  100.00    33    146.00      0.00 39131992 2334384   1.19     -1.00     -1.00     -1.00       0  qemu-system-x86_64 -enable-kvm -name guest=T23L-namenode2,debug-threads=on -S -object secret,id=masterKey0,format=raw,file=/var/lib/libvirt/qemu/domain-2-T23L-namenode2/master-key.aes -machine pc-i440fx-bionic,accel=kvm,usb=off,dump-guest-core=off -cpu Skylake-Server-IBRS -m 32768 -realtime mlock=off -smp 16,sockets=16,cores=1,threads=1 -uuid e69b750f-20dd-46e6-bbf0-13878144ae4e -display none -no-user-config -nodefaults -chardev socket,id=charmonitor,path=/var/lib/libvirt/qemu/domain-2-T23L-namenode2/monitor.sock,server,nowait -mon chardev=charmonitor,id=monitor,mode=control -rtc base=utc,driftfix=slew -global kvm-pit.lost_tick_policy=delay -no-hpet -no-shutdown -global PIIX4_PM.disable_s3=1 -global PIIX4_PM.disable_s4=1 -boot strict=on -device ich9-usb-ehci1,id=usb,bus=pci.0,addr=0x3.0x7 -device ich9-usb-uhci1,masterbus=usb.0,firstport=0,bus=pci.0,multifunction=on,addr=0x3 -device ich9-usb-uhci2,masterbus=usb.0,firstport=2,bus=pci.0,addr=0x3.0x1 -device ich9-usb-uhci3,masterbus=usb.0,firstport=4,bus=pci.0,addr=0x3.0x2 -drive file=/var/lib/libvirt/images/T23L-namenode2.img,format=raw,if=none,id=drive-virtio-disk0 -device virtio-blk-pci,scsi=off,bus=pci.0,addr=0x4,drive=drive-virtio-disk0,id=virtio-disk0,bootindex=1 -drive file=/var/lib/libvirt/images/T23L-namenode2.iso,format=raw,if=none,id=drive-ide0-0-0,readonly=on -device ide-cd,bus=ide.0,unit=0,drive=drive-ide0-0-0,id=ide0-0-0 -netdev tap,fd=27,id=hostnet0,vhost=on,vhostfd=29 -device virtio-net-pci,netdev=hostnet0,id=net0,mac=52:54:00:ce:2c:a2,bus=pci.0,addr=0x2 -chardev pty,id=charserial0 -device isa-serial,chardev=charserial0,id=serial0 -device virtio-balloon-pci,id=balloon0,bus=pci.0,addr=0x5 -msg timestamp=on 
20:39:10        0      4763    0.00    0.00    0.00    0.00    0.00    36      2.00      0.00       0       0   0.00     -1.00     -1.00     -1.00       0  vhost-4748
20:39:10        0      7491    0.00   23.00    0.00    0.00   23.00    41      0.00      0.00       0       0   0.00     -1.00     -1.00     -1.00      77  kworker/u98:0
20:39:10     1000      8162    1.00    3.00    0.00    0.00    4.00    32      0.00      0.00   22720   17304   0.01      0.00      0.00      0.00       0  pidstat -d -r -u -hl 1 

# Time        UID       PID    %usr %system  %guest   %wait    %CPU   CPU  minflt/s  majflt/s     VSZ     RSS   %MEM   kB_rd/s   kB_wr/s kB_ccwr/s iodelay  Command
20:39:11        0       354    0.00    1.00    0.00    0.00    1.00    42      0.00      0.00       0       0   0.00     -1.00     -1.00     -1.00       0  ksmd
20:39:11        0       800    0.00    1.00    0.00    0.00    1.00    41      0.00      0.00       0       0   0.00     -1.00     -1.00     -1.00       9  jbd2/sda1-8
20:39:11    64055      3381    0.00    1.00    0.00    0.00    1.00    20      0.00      0.00 35163940   49812   0.03     -1.00     -1.00     -1.00       0  qemu-system-x86_64 -enable-kvm -name guest=T23L-namenode,debug-threads=on -S -object secret,id=masterKey0,format=raw,file=/var/lib/libvirt/qemu/domain-1-T23L-namenode/master-key.aes -machine pc-i440fx-bionic,accel=kvm,usb=off,dump-guest-core=off -cpu Skylake-Server-IBRS -m 32768 -realtime mlock=off -smp 16,sockets=16,cores=1,threads=1 -uuid d7b3a402-fd55-4996-b667-a6b2ae76342c -display none -no-user-config -nodefaults -chardev socket,id=charmonitor,path=/var/lib/libvirt/qemu/domain-1-T23L-namenode/monitor.sock,server,nowait -mon chardev=charmonitor,id=monitor,mode=control -rtc base=utc,driftfix=slew -global kvm-pit.lost_tick_policy=delay -no-hpet -no-shutdown -global PIIX4_PM.disable_s3=1 -global PIIX4_PM.disable_s4=1 -boot strict=on -device ich9-usb-ehci1,id=usb,bus=pci.0,addr=0x3.0x7 -device ich9-usb-uhci1,masterbus=usb.0,firstport=0,bus=pci.0,multifunction=on,addr=0x3 -device ich9-usb-uhci2,masterbus=usb.0,firstport=2,bus=pci.0,addr=0x3.0x1 -device ich9-usb-uhci3,masterbus=usb.0,firstport=4,bus=pci.0,addr=0x3.0x2 -drive file=/var/lib/libvirt/images/T23L-namenode.img,format=raw,if=none,id=drive-virtio-disk0 -device virtio-blk-pci,scsi=off,bus=pci.0,addr=0x4,drive=drive-virtio-disk0,id=virtio-disk0,bootindex=1 -drive file=/var/lib/libvirt/images/T23L-namenode.iso,format=raw,if=none,id=drive-ide0-0-0,readonly=on -device ide-cd,bus=ide.0,unit=0,drive=drive-ide0-0-0,id=ide0-0-0 -netdev tap,fd=25,id=hostnet0,vhost=on,vhostfd=27 -device virtio-net-pci,netdev=hostnet0,id=net0,mac=52:54:00:d3:c2:69,bus=pci.0,addr=0x2 -chardev pty,id=charserial0 -device isa-serial,chardev=charserial0,id=serial0 -device virtio-balloon-pci,id=balloon0,bus=pci.0,addr=0x5 -msg timestamp=on 
20:39:11        0      3413    0.00    1.00    0.00    0.00    1.00    18      0.00      0.00       0       0   0.00     -1.00     -1.00     -1.00       0  kvm-pit/3381
20:39:11    64055      4748   18.00   72.00  100.00    0.00  100.00    45    121.00      0.00 39131992 2334384   1.19     -1.00     -1.00     -1.00       0  qemu-system-x86_64 -enable-kvm -name guest=T23L-namenode2,debug-threads=on -S -object secret,id=masterKey0,format=raw,file=/var/lib/libvirt/qemu/domain-2-T23L-namenode2/master-key.aes -machine pc-i440fx-bionic,accel=kvm,usb=off,dump-guest-core=off -cpu Skylake-Server-IBRS -m 32768 -realtime mlock=off -smp 16,sockets=16,cores=1,threads=1 -uuid e69b750f-20dd-46e6-bbf0-13878144ae4e -display none -no-user-config -nodefaults -chardev socket,id=charmonitor,path=/var/lib/libvirt/qemu/domain-2-T23L-namenode2/monitor.sock,server,nowait -mon chardev=charmonitor,id=monitor,mode=control -rtc base=utc,driftfix=slew -global kvm-pit.lost_tick_policy=delay -no-hpet -no-shutdown -global PIIX4_PM.disable_s3=1 -global PIIX4_PM.disable_s4=1 -boot strict=on -device ich9-usb-ehci1,id=usb,bus=pci.0,addr=0x3.0x7 -device ich9-usb-uhci1,masterbus=usb.0,firstport=0,bus=pci.0,multifunction=on,addr=0x3 -device ich9-usb-uhci2,masterbus=usb.0,firstport=2,bus=pci.0,addr=0x3.0x1 -device ich9-usb-uhci3,masterbus=usb.0,firstport=4,bus=pci.0,addr=0x3.0x2 -drive file=/var/lib/libvirt/images/T23L-namenode2.img,format=raw,if=none,id=drive-virtio-disk0 -device virtio-blk-pci,scsi=off,bus=pci.0,addr=0x4,drive=drive-virtio-disk0,id=virtio-disk0,bootindex=1 -drive file=/var/lib/libvirt/images/T23L-namenode2.iso,format=raw,if=none,id=drive-ide0-0-0,readonly=on -device ide-cd,bus=ide.0,unit=0,drive=drive-ide0-0-0,id=ide0-0-0 -netdev tap,fd=27,id=hostnet0,vhost=on,vhostfd=29 -device virtio-net-pci,netdev=hostnet0,id=net0,mac=52:54:00:ce:2c:a2,bus=pci.0,addr=0x2 -chardev pty,id=charserial0 -device isa-serial,chardev=charserial0,id=serial0 -device virtio-balloon-pci,id=balloon0,bus=pci.0,addr=0x5 -msg timestamp=on 
20:39:11        0      7491    0.00   16.00    0.00    1.00   16.00    41      0.00      0.00       0       0   0.00     -1.00     -1.00     -1.00      83  kworker/u98:0
20:39:11     1000      8162    1.00    3.00    0.00    0.00    4.00    32      0.00      0.00   22720   17304   0.01      0.00      4.00      0.00       0  pidstat -d -r -u -hl 1 

# Time        UID       PID    %usr %system  %guest   %wait    %CPU   CPU  minflt/s  majflt/s     VSZ     RSS   %MEM   kB_rd/s   kB_wr/s kB_ccwr/s iodelay  Command
20:39:12    64055      4748   11.00   97.00  100.00    0.00  100.00    47    131.00      0.00 39131992 2334384   1.19     -1.00     -1.00     -1.00       0  qemu-system-x86_64 -enable-kvm -name guest=T23L-namenode2,debug-threads=on -S -object secret,id=masterKey0,format=raw,file=/var/lib/libvirt/qemu/domain-2-T23L-namenode2/master-key.aes -machine pc-i440fx-bionic,accel=kvm,usb=off,dump-guest-core=off -cpu Skylake-Server-IBRS -m 32768 -realtime mlock=off -smp 16,sockets=16,cores=1,threads=1 -uuid e69b750f-20dd-46e6-bbf0-13878144ae4e -display none -no-user-config -nodefaults -chardev socket,id=charmonitor,path=/var/lib/libvirt/qemu/domain-2-T23L-namenode2/monitor.sock,server,nowait -mon chardev=charmonitor,id=monitor,mode=control -rtc base=utc,driftfix=slew -global kvm-pit.lost_tick_policy=delay -no-hpet -no-shutdown -global PIIX4_PM.disable_s3=1 -global PIIX4_PM.disable_s4=1 -boot strict=on -device ich9-usb-ehci1,id=usb,bus=pci.0,addr=0x3.0x7 -device ich9-usb-uhci1,masterbus=usb.0,firstport=0,bus=pci.0,multifunction=on,addr=0x3 -device ich9-usb-uhci2,masterbus=usb.0,firstport=2,bus=pci.0,addr=0x3.0x1 -device ich9-usb-uhci3,masterbus=usb.0,firstport=4,bus=pci.0,addr=0x3.0x2 -drive file=/var/lib/libvirt/images/T23L-namenode2.img,format=raw,if=none,id=drive-virtio-disk0 -device virtio-blk-pci,scsi=off,bus=pci.0,addr=0x4,drive=drive-virtio-disk0,id=virtio-disk0,bootindex=1 -drive file=/var/lib/libvirt/images/T23L-namenode2.iso,format=raw,if=none,id=drive-ide0-0-0,readonly=on -device ide-cd,bus=ide.0,unit=0,drive=drive-ide0-0-0,id=ide0-0-0 -netdev tap,fd=27,id=hostnet0,vhost=on,vhostfd=29 -device virtio-net-pci,netdev=hostnet0,id=net0,mac=52:54:00:ce:2c:a2,bus=pci.0,addr=0x2 -chardev pty,id=charserial0 -device isa-serial,chardev=charserial0,id=serial0 -device virtio-balloon-pci,id=balloon0,bus=pci.0,addr=0x5 -msg timestamp=on 
20:39:12        0      4763    0.00    0.00    0.00    0.00    0.00    36      1.00      0.00       0       0   0.00     -1.00     -1.00     -1.00       0  vhost-4748
20:39:12        0      7491    0.00    1.00    0.00    0.00    1.00    41      0.00      0.00       0       0   0.00     -1.00     -1.00     -1.00       7  kworker/u98:0
20:39:12     1000      8162    2.00    2.00    0.00    0.00    4.00    32      0.00      0.00   22720   17304   0.01      0.00      4.00      0.00       0  pidstat -d -r -u -hl 1 

# Time        UID       PID    %usr %system  %guest   %wait    %CPU   CPU  minflt/s  majflt/s     VSZ     RSS   %MEM   kB_rd/s   kB_wr/s kB_ccwr/s iodelay  Command
20:39:13        0         1    0.00    0.00    0.00    0.00    0.00    35      6.00      0.00  225420    9260   0.00     -1.00     -1.00     -1.00       0  /sbin/init 
20:39:13        0       354    0.00    1.00    0.00    0.00    1.00    42      0.00      0.00       0       0   0.00     -1.00     -1.00     -1.00       0  ksmd
20:39:13    64055      4748   17.00   88.00  100.00    0.00  100.00    47    294.00      0.00 39131992 2334384   1.19     -1.00     -1.00     -1.00       0  qemu-system-x86_64 -enable-kvm -name guest=T23L-namenode2,debug-threads=on -S -object secret,id=masterKey0,format=raw,file=/var/lib/libvirt/qemu/domain-2-T23L-namenode2/master-key.aes -machine pc-i440fx-bionic,accel=kvm,usb=off,dump-guest-core=off -cpu Skylake-Server-IBRS -m 32768 -realtime mlock=off -smp 16,sockets=16,cores=1,threads=1 -uuid e69b750f-20dd-46e6-bbf0-13878144ae4e -display none -no-user-config -nodefaults -chardev socket,id=charmonitor,path=/var/lib/libvirt/qemu/domain-2-T23L-namenode2/monitor.sock,server,nowait -mon chardev=charmonitor,id=monitor,mode=control -rtc base=utc,driftfix=slew -global kvm-pit.lost_tick_policy=delay -no-hpet -no-shutdown -global PIIX4_PM.disable_s3=1 -global PIIX4_PM.disable_s4=1 -boot strict=on -device ich9-usb-ehci1,id=usb,bus=pci.0,addr=0x3.0x7 -device ich9-usb-uhci1,masterbus=usb.0,firstport=0,bus=pci.0,multifunction=on,addr=0x3 -device ich9-usb-uhci2,masterbus=usb.0,firstport=2,bus=pci.0,addr=0x3.0x1 -device ich9-usb-uhci3,masterbus=usb.0,firstport=4,bus=pci.0,addr=0x3.0x2 -drive file=/var/lib/libvirt/images/T23L-namenode2.img,format=raw,if=none,id=drive-virtio-disk0 -device virtio-blk-pci,scsi=off,bus=pci.0,addr=0x4,drive=drive-virtio-disk0,id=virtio-disk0,bootindex=1 -drive file=/var/lib/libvirt/images/T23L-namenode2.iso,format=raw,if=none,id=drive-ide0-0-0,readonly=on -device ide-cd,bus=ide.0,unit=0,drive=drive-ide0-0-0,id=ide0-0-0 -netdev tap,fd=27,id=hostnet0,vhost=on,vhostfd=29 -device virtio-net-pci,netdev=hostnet0,id=net0,mac=52:54:00:ce:2c:a2,bus=pci.0,addr=0x2 -chardev pty,id=charserial0 -device isa-serial,chardev=charserial0,id=serial0 -device virtio-balloon-pci,id=balloon0,bus=pci.0,addr=0x5 -msg timestamp=on 
20:39:13     1000      8162    1.00    2.00    0.00    0.00    3.00    32      0.00      0.00   22720   17304   0.01      0.00      4.00      0.00       0  pidstat -d -r -u -hl 1 

# Time        UID       PID    %usr %system  %guest   %wait    %CPU   CPU  minflt/s  majflt/s     VSZ     RSS   %MEM   kB_rd/s   kB_wr/s kB_ccwr/s iodelay  Command
20:39:14    64055      3381    0.00    1.00    0.00    0.00    1.00    20      0.00      0.00 35163940   49812   0.03     -1.00     -1.00     -1.00       0  qemu-system-x86_64 -enable-kvm -name guest=T23L-namenode,debug-threads=on -S -object secret,id=masterKey0,format=raw,file=/var/lib/libvirt/qemu/domain-1-T23L-namenode/master-key.aes -machine pc-i440fx-bionic,accel=kvm,usb=off,dump-guest-core=off -cpu Skylake-Server-IBRS -m 32768 -realtime mlock=off -smp 16,sockets=16,cores=1,threads=1 -uuid d7b3a402-fd55-4996-b667-a6b2ae76342c -display none -no-user-config -nodefaults -chardev socket,id=charmonitor,path=/var/lib/libvirt/qemu/domain-1-T23L-namenode/monitor.sock,server,nowait -mon chardev=charmonitor,id=monitor,mode=control -rtc base=utc,driftfix=slew -global kvm-pit.lost_tick_policy=delay -no-hpet -no-shutdown -global PIIX4_PM.disable_s3=1 -global PIIX4_PM.disable_s4=1 -boot strict=on -device ich9-usb-ehci1,id=usb,bus=pci.0,addr=0x3.0x7 -device ich9-usb-uhci1,masterbus=usb.0,firstport=0,bus=pci.0,multifunction=on,addr=0x3 -device ich9-usb-uhci2,masterbus=usb.0,firstport=2,bus=pci.0,addr=0x3.0x1 -device ich9-usb-uhci3,masterbus=usb.0,firstport=4,bus=pci.0,addr=0x3.0x2 -drive file=/var/lib/libvirt/images/T23L-namenode.img,format=raw,if=none,id=drive-virtio-disk0 -device virtio-blk-pci,scsi=off,bus=pci.0,addr=0x4,drive=drive-virtio-disk0,id=virtio-disk0,bootindex=1 -drive file=/var/lib/libvirt/images/T23L-namenode.iso,format=raw,if=none,id=drive-ide0-0-0,readonly=on -device ide-cd,bus=ide.0,unit=0,drive=drive-ide0-0-0,id=ide0-0-0 -netdev tap,fd=25,id=hostnet0,vhost=on,vhostfd=27 -device virtio-net-pci,netdev=hostnet0,id=net0,mac=52:54:00:d3:c2:69,bus=pci.0,addr=0x2 -chardev pty,id=charserial0 -device isa-serial,chardev=charserial0,id=serial0 -device virtio-balloon-pci,id=balloon0,bus=pci.0,addr=0x5 -msg timestamp=on 
20:39:14    64055      4748   10.00   93.00  100.00    0.00  100.00    47    234.00      0.00 39131992 2334384   1.19     -1.00     -1.00     -1.00       0  qemu-system-x86_64 -enable-kvm -name guest=T23L-namenode2,debug-threads=on -S -object secret,id=masterKey0,format=raw,file=/var/lib/libvirt/qemu/domain-2-T23L-namenode2/master-key.aes -machine pc-i440fx-bionic,accel=kvm,usb=off,dump-guest-core=off -cpu Skylake-Server-IBRS -m 32768 -realtime mlock=off -smp 16,sockets=16,cores=1,threads=1 -uuid e69b750f-20dd-46e6-bbf0-13878144ae4e -display none -no-user-config -nodefaults -chardev socket,id=charmonitor,path=/var/lib/libvirt/qemu/domain-2-T23L-namenode2/monitor.sock,server,nowait -mon chardev=charmonitor,id=monitor,mode=control -rtc base=utc,driftfix=slew -global kvm-pit.lost_tick_policy=delay -no-hpet -no-shutdown -global PIIX4_PM.disable_s3=1 -global PIIX4_PM.disable_s4=1 -boot strict=on -device ich9-usb-ehci1,id=usb,bus=pci.0,addr=0x3.0x7 -device ich9-usb-uhci1,masterbus=usb.0,firstport=0,bus=pci.0,multifunction=on,addr=0x3 -device ich9-usb-uhci2,masterbus=usb.0,firstport=2,bus=pci.0,addr=0x3.0x1 -device ich9-usb-uhci3,masterbus=usb.0,firstport=4,bus=pci.0,addr=0x3.0x2 -drive file=/var/lib/libvirt/images/T23L-namenode2.img,format=raw,if=none,id=drive-virtio-disk0 -device virtio-blk-pci,scsi=off,bus=pci.0,addr=0x4,drive=drive-virtio-disk0,id=virtio-disk0,bootindex=1 -drive file=/var/lib/libvirt/images/T23L-namenode2.iso,format=raw,if=none,id=drive-ide0-0-0,readonly=on -device ide-cd,bus=ide.0,unit=0,drive=drive-ide0-0-0,id=ide0-0-0 -netdev tap,fd=27,id=hostnet0,vhost=on,vhostfd=29 -device virtio-net-pci,netdev=hostnet0,id=net0,mac=52:54:00:ce:2c:a2,bus=pci.0,addr=0x2 -chardev pty,id=charserial0 -device isa-serial,chardev=charserial0,id=serial0 -device virtio-balloon-pci,id=balloon0,bus=pci.0,addr=0x5 -msg timestamp=on 
20:39:14     1000      8162    2.00    1.00    0.00    0.00    3.00    32      0.00      0.00   22720   17304   0.01      0.00      0.00      0.00       0  pidstat -d -r -u -hl 1 

# Time        UID       PID    %usr %system  %guest   %wait    %CPU   CPU  minflt/s  majflt/s     VSZ     RSS   %MEM   kB_rd/s   kB_wr/s kB_ccwr/s iodelay  Command
20:39:15        0       330    0.00    1.00    0.00    0.00    1.00    21      0.00      0.00       0       0   0.00     -1.00     -1.00     -1.00       0  kworker/21:1
20:39:15        0       354    0.00    1.00    0.00    0.00    1.00    42      0.00      0.00       0       0   0.00     -1.00     -1.00     -1.00       0  ksmd
20:39:15    64055      4748    9.00   91.00  100.00    0.00  100.00    47   1031.00      0.00 39131992 2334384   1.19     -1.00     -1.00     -1.00       0  qemu-system-x86_64 -enable-kvm -name guest=T23L-namenode2,debug-threads=on -S -object secret,id=masterKey0,format=raw,file=/var/lib/libvirt/qemu/domain-2-T23L-namenode2/master-key.aes -machine pc-i440fx-bionic,accel=kvm,usb=off,dump-guest-core=off -cpu Skylake-Server-IBRS -m 32768 -realtime mlock=off -smp 16,sockets=16,cores=1,threads=1 -uuid e69b750f-20dd-46e6-bbf0-13878144ae4e -display none -no-user-config -nodefaults -chardev socket,id=charmonitor,path=/var/lib/libvirt/qemu/domain-2-T23L-namenode2/monitor.sock,server,nowait -mon chardev=charmonitor,id=monitor,mode=control -rtc base=utc,driftfix=slew -global kvm-pit.lost_tick_policy=delay -no-hpet -no-shutdown -global PIIX4_PM.disable_s3=1 -global PIIX4_PM.disable_s4=1 -boot strict=on -device ich9-usb-ehci1,id=usb,bus=pci.0,addr=0x3.0x7 -device ich9-usb-uhci1,masterbus=usb.0,firstport=0,bus=pci.0,multifunction=on,addr=0x3 -device ich9-usb-uhci2,masterbus=usb.0,firstport=2,bus=pci.0,addr=0x3.0x1 -device ich9-usb-uhci3,masterbus=usb.0,firstport=4,bus=pci.0,addr=0x3.0x2 -drive file=/var/lib/libvirt/images/T23L-namenode2.img,format=raw,if=none,id=drive-virtio-disk0 -device virtio-blk-pci,scsi=off,bus=pci.0,addr=0x4,drive=drive-virtio-disk0,id=virtio-disk0,bootindex=1 -drive file=/var/lib/libvirt/images/T23L-namenode2.iso,format=raw,if=none,id=drive-ide0-0-0,readonly=on -device ide-cd,bus=ide.0,unit=0,drive=drive-ide0-0-0,id=ide0-0-0 -netdev tap,fd=27,id=hostnet0,vhost=on,vhostfd=29 -device virtio-net-pci,netdev=hostnet0,id=net0,mac=52:54:00:ce:2c:a2,bus=pci.0,addr=0x2 -chardev pty,id=charserial0 -device isa-serial,chardev=charserial0,id=serial0 -device virtio-balloon-pci,id=balloon0,bus=pci.0,addr=0x5 -msg timestamp=on 
20:39:15     1000      8162    2.00    2.00    0.00    0.00    4.00    32      0.00      0.00   22720   17304   0.01      0.00      4.00      0.00       0  pidstat -d -r -u -hl 1 

# Time        UID       PID    %usr %system  %guest   %wait    %CPU   CPU  minflt/s  majflt/s     VSZ     RSS   %MEM   kB_rd/s   kB_wr/s kB_ccwr/s iodelay  Command
20:39:16        0         1    1.00    0.00    0.00    0.00    1.00    10    117.00      0.00  225420    9260   0.00     -1.00     -1.00     -1.00       0  /sbin/init 
20:39:16        0       909    0.00    1.00    0.00    0.00    1.00    14     34.00      0.00  136032   42744   0.02     -1.00     -1.00     -1.00       0  /lib/systemd/systemd-journald 
20:39:16        0       940    0.00    1.00    0.00    0.00    1.00    12    637.00      0.00   46256    5124   0.00     -1.00     -1.00     -1.00       0  /lib/systemd/systemd-udevd 
20:39:16    64055      3381    0.00    1.00    0.00    0.00    1.00    20      0.00      0.00 35163940   49812   0.03     -1.00     -1.00     -1.00       0  qemu-system-x86_64 -enable-kvm -name guest=T23L-namenode,debug-threads=on -S -object secret,id=masterKey0,format=raw,file=/var/lib/libvirt/qemu/domain-1-T23L-namenode/master-key.aes -machine pc-i440fx-bionic,accel=kvm,usb=off,dump-guest-core=off -cpu Skylake-Server-IBRS -m 32768 -realtime mlock=off -smp 16,sockets=16,cores=1,threads=1 -uuid d7b3a402-fd55-4996-b667-a6b2ae76342c -display none -no-user-config -nodefaults -chardev socket,id=charmonitor,path=/var/lib/libvirt/qemu/domain-1-T23L-namenode/monitor.sock,server,nowait -mon chardev=charmonitor,id=monitor,mode=control -rtc base=utc,driftfix=slew -global kvm-pit.lost_tick_policy=delay -no-hpet -no-shutdown -global PIIX4_PM.disable_s3=1 -global PIIX4_PM.disable_s4=1 -boot strict=on -device ich9-usb-ehci1,id=usb,bus=pci.0,addr=0x3.0x7 -device ich9-usb-uhci1,masterbus=usb.0,firstport=0,bus=pci.0,multifunction=on,addr=0x3 -device ich9-usb-uhci2,masterbus=usb.0,firstport=2,bus=pci.0,addr=0x3.0x1 -device ich9-usb-uhci3,masterbus=usb.0,firstport=4,bus=pci.0,addr=0x3.0x2 -drive file=/var/lib/libvirt/images/T23L-namenode.img,format=raw,if=none,id=drive-virtio-disk0 -device virtio-blk-pci,scsi=off,bus=pci.0,addr=0x4,drive=drive-virtio-disk0,id=virtio-disk0,bootindex=1 -drive file=/var/lib/libvirt/images/T23L-namenode.iso,format=raw,if=none,id=drive-ide0-0-0,readonly=on -device ide-cd,bus=ide.0,unit=0,drive=drive-ide0-0-0,id=ide0-0-0 -netdev tap,fd=25,id=hostnet0,vhost=on,vhostfd=27 -device virtio-net-pci,netdev=hostnet0,id=net0,mac=52:54:00:d3:c2:69,bus=pci.0,addr=0x2 -chardev pty,id=charserial0 -device isa-serial,chardev=charserial0,id=serial0 -device virtio-balloon-pci,id=balloon0,bus=pci.0,addr=0x5 -msg timestamp=on 